 Entering Gaussian System, Link 0=g09
 Input=2NBALa-2_opt.inp
 Output=2NBALa-2_opt.log
 Initial command:
 /usr/local/g09/l1.exe /home/g09scr/Gau-25546.inp -scrdir=/home/g09scr/
 Entering Link 1 = /usr/local/g09/l1.exe PID=     25548.
  
 Copyright (c) 1988,1990,1992,1993,1995,1998,2003,2009,2010,
            Gaussian, Inc.  All Rights Reserved.
  
 This is part of the Gaussian(R) 09 program.  It is based on
 the Gaussian(R) 03 system (copyright 2003, Gaussian, Inc.),
 the Gaussian(R) 98 system (copyright 1998, Gaussian, Inc.),
 the Gaussian(R) 94 system (copyright 1995, Gaussian, Inc.),
 the Gaussian 92(TM) system (copyright 1992, Gaussian, Inc.),
 the Gaussian 90(TM) system (copyright 1990, Gaussian, Inc.),
 the Gaussian 88(TM) system (copyright 1988, Gaussian, Inc.),
 the Gaussian 86(TM) system (copyright 1986, Carnegie Mellon
 University), and the Gaussian 82(TM) system (copyright 1983,
 Carnegie Mellon University). Gaussian is a federally registered
 trademark of Gaussian, Inc.
  
 This software contains proprietary and confidential information,
 including trade secrets, belonging to Gaussian, Inc.
  
 This software is provided under written license and may be
 used, copied, transmitted, or stored only in accord with that
 written license.
  
 The following legend is applicable only to US Government
 contracts under FAR:
  
                    RESTRICTED RIGHTS LEGEND
  
 Use, reproduction and disclosure by the US Government is
 subject to restrictions as set forth in subparagraphs (a)
 and (c) of the Commercial Computer Software - Restricted
 Rights clause in FAR 52.227-19.
  
 Gaussian, Inc.
 340 Quinnipiac St., Bldg. 40, Wallingford CT 06492
  
  
 ---------------------------------------------------------------
 Warning -- This program may not be used in any manner that
 competes with the business of Gaussian, Inc. or will provide
 assistance to any competitor of Gaussian, Inc.  The licensee
 of this program is prohibited from giving any competitor of
 Gaussian, Inc. access to this program.  By using this program,
 the user acknowledges that Gaussian, Inc. is engaged in the
 business of creating and licensing software in the field of
 computational chemistry and represents and warrants to the
 licensee that it is not a competitor of Gaussian, Inc. and that
 it will not use this program in any manner prohibited above.
 ---------------------------------------------------------------
  

 Cite this work as:
 Gaussian 09, Revision B.01,
 M. J. Frisch, G. W. Trucks, H. B. Schlegel, G. E. Scuseria, 
 M. A. Robb, J. R. Cheeseman, G. Scalmani, V. Barone, B. Mennucci, 
 G. A. Petersson, H. Nakatsuji, M. Caricato, X. Li, H. P. Hratchian, 
 A. F. Izmaylov, J. Bloino, G. Zheng, J. L. Sonnenberg, M. Hada, 
 M. Ehara, K. Toyota, R. Fukuda, J. Hasegawa, M. Ishida, T. Nakajima, 
 Y. Honda, O. Kitao, H. Nakai, T. Vreven, J. A. Montgomery, Jr., 
 J. E. Peralta, F. Ogliaro, M. Bearpark, J. J. Heyd, E. Brothers, 
 K. N. Kudin, V. N. Staroverov, T. Keith, R. Kobayashi, J. Normand, 
 K. Raghavachari, A. Rendell, J. C. Burant, S. S. Iyengar, J. Tomasi, 
 M. Cossi, N. Rega, J. M. Millam, M. Klene, J. E. Knox, J. B. Cross, 
 V. Bakken, C. Adamo, J. Jaramillo, R. Gomperts, R. E. Stratmann, 
 O. Yazyev, A. J. Austin, R. Cammi, C. Pomelli, J. W. Ochterski, 
 R. L. Martin, K. Morokuma, V. G. Zakrzewski, G. A. Voth, 
 P. Salvador, J. J. Dannenberg, S. Dapprich, A. D. Daniels, 
 O. Farkas, J. B. Foresman, J. V. Ortiz, J. Cioslowski, 
 and D. J. Fox, Gaussian, Inc., Wallingford CT, 2010.
 
 ******************************************
 Gaussian 09:  EM64L-G09RevB.01 12-Aug-2010
                10-Mar-2020 
 ******************************************
 %chk=2NBALa-2_opt.chk
 %nprocshared=6
 Will use up to    6 processors via shared memory.
 %mem=100GB
 ----------------------------------------------------------------------
 #G3MP2 QCISD=(Maxcyc=400) opt=(MaxCycles=400) scf=(MaxCycle=600) test 
 GFInput IOP(6/7=3)
 ----------------------------------------------------------------------
 1/6=400,18=20,19=15,38=1/1,3;
 2/9=110,12=2,17=6,18=5,40=1/2;
 3/5=33,7=1,11=9,16=1,24=10,25=1,30=1,71=1/1,2,3;
 4//1;
 5/5=2,7=600,38=5/2;
 6/7=3,8=2,9=2,10=2,28=1/1;
 7//1,2,3,16;
 1/6=400,18=20,19=15/3(2);
 2/9=110/2;
 99//99;
 2/9=110/2;
 3/5=33,7=1,11=9,16=1,25=1,30=1,71=1/1,2,3;
 4/5=5,16=3/1;
 5/5=2,7=600,38=5/2;
 7//1,2,3,16;
 1/6=400,18=20,19=15/3(-5);
 2/9=110/2;
 6/7=3,8=2,9=2,10=2,19=2,28=1/1;
 99/9=1/99;
 -------------------------------
 2NBALa-2_opt, G3MP2, qcisd test
 -------------------------------
 Symbolic Z-matrix:
 Charge =  0 Multiplicity = 1
 C
 C                    1    r02
 C                    2    r03      1    a03
 C                    3    r04      2    a04      1    d04      0
 C                    4    r05      3    a05      2    d05      0
 C                    5    r06      4    a06      3    d06      0
 H                    1    r07      2    a07      3    d07      0
 H                    2    r08      3    a08      1    d08      0
 H                    3    r09      4    a09      2    d09      0
 H                    4    r10      5    a10      3    d10      0
 C                    5    r11      6    a11      4    d11      0
 N                    6    r12      1    a12      2    d12      0
 O                    12   r13      6    a13      5    d13      0
 O                    12   r14      6    a14      1    d14      0
 O                    11   r15      5    a15      4    d15      0
 H                    11   r16      5    a16      15   d16      0
       Variables:
  r02                   1.39445                  
  r03                   1.39147                  
  a03                 120.15963                  
  r04                   1.39167                  
  a04                 119.67756                  
  d04                   0.60876                  
  r05                   1.39712                  
  a05                 121.32763                  
  d05                  -0.48597                  
  r06                   1.40026                  
  a06                 117.62627                  
  d06                  -0.75693                  
  r07                   1.08296                  
  a07                 121.39694                  
  d07                 179.78169                  
  r08                   1.08426                  
  a08                 120.33786                  
  d08                 179.76725                  
  r09                   1.08408                  
  a09                 120.06668                  
  d09                 180.52432                  
  r10                   1.08602                  
  a10                 118.49406                  
  d10                 181.1723                   
  r11                   1.48788                  
  a11                 124.28223                  
  d11                 185.57829                  
  r12                   1.47841                  
  a12                 116.47148                  
  d12                 175.11213                  
  r13                   1.22177                  
  a13                 116.60921                  
  d13                 231.77471                  
  r14                   1.2185                   
  a14                 116.92334                  
  d14                 238.51627                  
  r15                   1.20416                  
  a15                 125.3269                   
  d15                 200.29303                  
  r16                   1.11225                  
  a16                 113.11736                  
  d16                 177.13741                  
 

 GradGradGradGradGradGradGradGradGradGradGradGradGradGradGradGradGradGrad
 Berny optimization.
 Initialization pass.
                           ----------------------------
                           !    Initial Parameters    !
                           ! (Angstroms and Degrees)  !
 --------------------------                            --------------------------
 ! Name  Definition              Value          Derivative Info.                !
 --------------------------------------------------------------------------------
 ! R1    R(1,2)                  1.3945         estimate D2E/DX2                !
 ! R2    R(1,6)                  1.3847         estimate D2E/DX2                !
 ! R3    R(1,7)                  1.083          estimate D2E/DX2                !
 ! R4    R(2,3)                  1.3915         estimate D2E/DX2                !
 ! R5    R(2,8)                  1.0843         estimate D2E/DX2                !
 ! R6    R(3,4)                  1.3917         estimate D2E/DX2                !
 ! R7    R(3,9)                  1.0841         estimate D2E/DX2                !
 ! R8    R(4,5)                  1.3971         estimate D2E/DX2                !
 ! R9    R(4,10)                 1.086          estimate D2E/DX2                !
 ! R10   R(5,6)                  1.4003         estimate D2E/DX2                !
 ! R11   R(5,11)                 1.4879         estimate D2E/DX2                !
 ! R12   R(6,12)                 1.4784         estimate D2E/DX2                !
 ! R13   R(11,15)                1.2042         estimate D2E/DX2                !
 ! R14   R(11,16)                1.1122         estimate D2E/DX2                !
 ! R15   R(12,13)                1.2218         estimate D2E/DX2                !
 ! R16   R(12,14)                1.2185         estimate D2E/DX2                !
 ! A1    A(2,1,6)              119.2665         estimate D2E/DX2                !
 ! A2    A(2,1,7)              121.3969         estimate D2E/DX2                !
 ! A3    A(6,1,7)              119.3324         estimate D2E/DX2                !
 ! A4    A(1,2,3)              120.1596         estimate D2E/DX2                !
 ! A5    A(1,2,8)              119.5021         estimate D2E/DX2                !
 ! A6    A(3,2,8)              120.3379         estimate D2E/DX2                !
 ! A7    A(2,3,4)              119.6776         estimate D2E/DX2                !
 ! A8    A(2,3,9)              120.2537         estimate D2E/DX2                !
 ! A9    A(4,3,9)              120.0667         estimate D2E/DX2                !
 ! A10   A(3,4,5)              121.3276         estimate D2E/DX2                !
 ! A11   A(3,4,10)             120.1679         estimate D2E/DX2                !
 ! A12   A(5,4,10)             118.4941         estimate D2E/DX2                !
 ! A13   A(4,5,6)              117.6263         estimate D2E/DX2                !
 ! A14   A(4,5,11)             117.8666         estimate D2E/DX2                !
 ! A15   A(6,5,11)             124.2822         estimate D2E/DX2                !
 ! A16   A(1,6,5)              121.9133         estimate D2E/DX2                !
 ! A17   A(1,6,12)             116.4715         estimate D2E/DX2                !
 ! A18   A(5,6,12)             121.5433         estimate D2E/DX2                !
 ! A19   A(5,11,15)            125.3269         estimate D2E/DX2                !
 ! A20   A(5,11,16)            113.1174         estimate D2E/DX2                !
 ! A21   A(15,11,16)           121.4928         estimate D2E/DX2                !
 ! A22   A(6,12,13)            116.6092         estimate D2E/DX2                !
 ! A23   A(6,12,14)            116.9233         estimate D2E/DX2                !
 ! A24   A(13,12,14)           126.3484         estimate D2E/DX2                !
 ! D1    D(6,1,2,3)              0.5317         estimate D2E/DX2                !
 ! D2    D(6,1,2,8)           -179.2375         estimate D2E/DX2                !
 ! D3    D(7,1,2,3)            179.7817         estimate D2E/DX2                !
 ! D4    D(7,1,2,8)              0.0125         estimate D2E/DX2                !
 ! D5    D(2,1,6,5)             -1.8466         estimate D2E/DX2                !
 ! D6    D(2,1,6,12)           175.1121         estimate D2E/DX2                !
 ! D7    D(7,1,6,5)            178.8878         estimate D2E/DX2                !
 ! D8    D(7,1,6,12)            -4.1535         estimate D2E/DX2                !
 ! D9    D(1,2,3,4)              0.6088         estimate D2E/DX2                !
 ! D10   D(1,2,3,9)           -179.9166         estimate D2E/DX2                !
 ! D11   D(8,2,3,4)           -179.624          estimate D2E/DX2                !
 ! D12   D(8,2,3,9)             -0.1493         estimate D2E/DX2                !
 ! D13   D(2,3,4,5)             -0.486          estimate D2E/DX2                !
 ! D14   D(2,3,4,10)           178.3223         estimate D2E/DX2                !
 ! D15   D(9,3,4,5)           -179.9617         estimate D2E/DX2                !
 ! D16   D(9,3,4,10)            -1.1534         estimate D2E/DX2                !
 ! D17   D(3,4,5,6)             -0.7569         estimate D2E/DX2                !
 ! D18   D(3,4,5,11)           174.0303         estimate D2E/DX2                !
 ! D19   D(10,4,5,6)          -179.5846         estimate D2E/DX2                !
 ! D20   D(10,4,5,11)           -4.7974         estimate D2E/DX2                !
 ! D21   D(4,5,6,1)              1.9417         estimate D2E/DX2                !
 ! D22   D(4,5,6,12)          -174.8637         estimate D2E/DX2                !
 ! D23   D(11,5,6,1)          -172.48           estimate D2E/DX2                !
 ! D24   D(11,5,6,12)           10.7146         estimate D2E/DX2                !
 ! D25   D(4,5,11,15)         -159.707          estimate D2E/DX2                !
 ! D26   D(4,5,11,16)           17.4304         estimate D2E/DX2                !
 ! D27   D(6,5,11,15)           14.7024         estimate D2E/DX2                !
 ! D28   D(6,5,11,16)         -168.1602         estimate D2E/DX2                !
 ! D29   D(1,6,12,13)           54.8039         estimate D2E/DX2                !
 ! D30   D(1,6,12,14)         -121.4837         estimate D2E/DX2                !
 ! D31   D(5,6,12,13)         -128.2253         estimate D2E/DX2                !
 ! D32   D(5,6,12,14)           55.4871         estimate D2E/DX2                !
 --------------------------------------------------------------------------------
 Trust Radius=3.00D-01 FncErr=1.00D-07 GrdErr=1.00D-07
 Number of steps in this run=    100 maximum allowed number of steps=    100.
 GradGradGradGradGradGradGradGradGradGradGradGradGradGradGradGradGradGrad

                          Input orientation:                          
 ---------------------------------------------------------------------
 Center     Atomic      Atomic             Coordinates (Angstroms)
 Number     Number       Type             X           Y           Z
 ---------------------------------------------------------------------
      1          6           0        0.000000    0.000000    0.000000
      2          6           0        0.000000    0.000000    1.394450
      3          6           0        1.203103    0.000000    2.093539
      4          6           0        2.406308    0.012846    1.394341
      5          6           0        2.434750    0.015708   -0.002482
      6          6           0        1.207929   -0.011210   -0.676958
      7          1           0       -0.924383   -0.003522   -0.564182
      8          1           0       -0.943668   -0.003801    1.928402
      9          1           0        1.204882   -0.001364    3.177614
     10          1           0        3.349596    0.040434    1.931817
     11          6           0        3.755474    0.166430   -0.670882
     12          7           0        1.137147   -0.123320   -2.149416
     13          8           0        0.453460    0.706822   -2.729204
     14          8           0        1.707203   -1.072309   -2.658530
     15          8           0        3.923619    0.528273   -1.807017
     16          1           0        4.613459   -0.043760    0.004974
 ---------------------------------------------------------------------
                    Distance matrix (angstroms):
                    1          2          3          4          5
     1  C    0.000000
     2  C    1.394450   0.000000
     3  C    2.414614   1.391467   0.000000
     4  C    2.781127   2.406342   1.391670   0.000000
     5  C    2.434802   2.807076   2.431153   1.397115   0.000000
     6  C    1.384735   2.397906   2.770524   2.393109   1.400262
     7  H    1.082958   2.165811   3.404363   3.863881   3.405826
     8  H    2.146918   1.084263   2.153116   3.392320   3.891324
     9  H    3.398378   2.152073   1.084078   2.150277   3.409674
    10  H    3.866956   3.392668   2.152957   1.086018   2.139876
    11  C    3.818556   4.289159   3.766208   2.471636   1.487880
    12  N    2.434810   3.723882   4.245258   3.766632   2.512454
    13  O    2.855482   4.208295   4.931572   4.615066   3.440663
    14  O    3.336491   4.526703   4.897563   4.253477   2.961030
    15  O    4.351916   5.091488   4.784832   3.580026   2.394953
    16  H    4.613669   4.818357   3.999318   2.608651   2.179533
                    6          7          8          9         10
     6  C    0.000000
     7  H    2.135306   0.000000
     8  H    3.378954   2.492658   0.000000
     9  H    3.854586   4.305208   2.485318   0.000000
    10  H    3.375665   4.949630   4.293493   2.480636   0.000000
    11  C    2.553738   4.684157   5.372820   4.620022   2.637168
    12  N    1.478414   2.603310   4.579593   5.328856   4.645235
    13  O    2.301414   2.662773   4.914290   5.996388   5.527820
    14  O    2.302571   3.529000   5.404514   5.954816   5.000694
    15  O    2.990493   5.032948   6.158485   5.702507   3.813970
    16  H    3.473287   5.567158   5.880717   4.656805   2.305897
                   11         12         13         14         15
    11  C    0.000000
    12  N    3.020869   0.000000
    13  O    3.928360   1.221769   0.000000
    14  O    3.111372   1.218499   2.177653   0.000000
    15  O    1.204161   2.882054   3.595041   2.863466   0.000000
    16  H    1.112250   4.090534   5.034352   4.074125   2.021487
                   16
    16  H    0.000000
 Stoichiometry    C7H5NO3
 Framework group  C1[X(C7H5NO3)]
 Deg. of freedom    42
 Full point group                 C1      NOp   1
 Largest Abelian subgroup         C1      NOp   1
 Largest concise Abelian subgroup C1      NOp   1
                         Standard orientation:                         
 ---------------------------------------------------------------------
 Center     Atomic      Atomic             Coordinates (Angstroms)
 Number     Number       Type             X           Y           Z
 ---------------------------------------------------------------------
      1          6           0       -0.985540   -1.461634   -0.038473
      2          6           0       -2.332993   -1.103179   -0.019179
      3          6           0       -2.698829    0.238110    0.038173
      4          6           0       -1.713518    1.220595    0.063345
      5          6           0       -0.356461    0.889111    0.042286
      6          6           0       -0.020428   -0.469878    0.011229
      7          1           0       -0.678308   -2.499290   -0.079393
      8          1           0       -3.091847   -1.877182   -0.045389
      9          1           0       -3.745905    0.518442    0.054606
     10          1           0       -1.990155    2.270647    0.080600
     11          6           0        0.628903    1.998746   -0.065213
     12          7           0        1.384539   -0.921417    0.100062
     13          8           0        1.766164   -1.695803   -0.764465
     14          8           0        2.026243   -0.541626    1.063760
     15          8           0        1.768880    1.884181   -0.435795
     16          1           0        0.197346    2.992058    0.188144
 ---------------------------------------------------------------------
 Rotational constants (GHZ):      1.7225720      1.1061148      0.7339108
 Standard basis: GTBas1 (6D, 7F)
 AO basis set in the form of general basis input (Overlap normalization):
      1 0
 S   6 1.00       0.000000000000
      0.3047524880D+04  0.1834737132D-02
      0.4573695180D+03  0.1403732281D-01
      0.1039486850D+03  0.6884262226D-01
      0.2921015530D+02  0.2321844432D+00
      0.9286662960D+01  0.4679413484D+00
      0.3163926960D+01  0.3623119853D+00
 SP   3 1.00       0.000000000000
      0.7868272350D+01 -0.1193324198D+00  0.6899906659D-01
      0.1881288540D+01 -0.1608541517D+00  0.3164239610D+00
      0.5442492580D+00  0.1143456438D+01  0.7443082909D+00
 SP   1 1.00       0.000000000000
      0.1687144782D+00  0.1000000000D+01  0.1000000000D+01
 D   1 1.00       0.000000000000
      0.8000000000D+00  0.1000000000D+01
 ****
      2 0
 S   6 1.00       0.000000000000
      0.3047524880D+04  0.1834737132D-02
      0.4573695180D+03  0.1403732281D-01
      0.1039486850D+03  0.6884262226D-01
      0.2921015530D+02  0.2321844432D+00
      0.9286662960D+01  0.4679413484D+00
      0.3163926960D+01  0.3623119853D+00
 SP   3 1.00       0.000000000000
      0.7868272350D+01 -0.1193324198D+00  0.6899906659D-01
      0.1881288540D+01 -0.1608541517D+00  0.3164239610D+00
      0.5442492580D+00  0.1143456438D+01  0.7443082909D+00
 SP   1 1.00       0.000000000000
      0.1687144782D+00  0.1000000000D+01  0.1000000000D+01
 D   1 1.00       0.000000000000
      0.8000000000D+00  0.1000000000D+01
 ****
      3 0
 S   6 1.00       0.000000000000
      0.3047524880D+04  0.1834737132D-02
      0.4573695180D+03  0.1403732281D-01
      0.1039486850D+03  0.6884262226D-01
      0.2921015530D+02  0.2321844432D+00
      0.9286662960D+01  0.4679413484D+00
      0.3163926960D+01  0.3623119853D+00
 SP   3 1.00       0.000000000000
      0.7868272350D+01 -0.1193324198D+00  0.6899906659D-01
      0.1881288540D+01 -0.1608541517D+00  0.3164239610D+00
      0.5442492580D+00  0.1143456438D+01  0.7443082909D+00
 SP   1 1.00       0.000000000000
      0.1687144782D+00  0.1000000000D+01  0.1000000000D+01
 D   1 1.00       0.000000000000
      0.8000000000D+00  0.1000000000D+01
 ****
      4 0
 S   6 1.00       0.000000000000
      0.3047524880D+04  0.1834737132D-02
      0.4573695180D+03  0.1403732281D-01
      0.1039486850D+03  0.6884262226D-01
      0.2921015530D+02  0.2321844432D+00
      0.9286662960D+01  0.4679413484D+00
      0.3163926960D+01  0.3623119853D+00
 SP   3 1.00       0.000000000000
      0.7868272350D+01 -0.1193324198D+00  0.6899906659D-01
      0.1881288540D+01 -0.1608541517D+00  0.3164239610D+00
      0.5442492580D+00  0.1143456438D+01  0.7443082909D+00
 SP   1 1.00       0.000000000000
      0.1687144782D+00  0.1000000000D+01  0.1000000000D+01
 D   1 1.00       0.000000000000
      0.8000000000D+00  0.1000000000D+01
 ****
      5 0
 S   6 1.00       0.000000000000
      0.3047524880D+04  0.1834737132D-02
      0.4573695180D+03  0.1403732281D-01
      0.1039486850D+03  0.6884262226D-01
      0.2921015530D+02  0.2321844432D+00
      0.9286662960D+01  0.4679413484D+00
      0.3163926960D+01  0.3623119853D+00
 SP   3 1.00       0.000000000000
      0.7868272350D+01 -0.1193324198D+00  0.6899906659D-01
      0.1881288540D+01 -0.1608541517D+00  0.3164239610D+00
      0.5442492580D+00  0.1143456438D+01  0.7443082909D+00
 SP   1 1.00       0.000000000000
      0.1687144782D+00  0.1000000000D+01  0.1000000000D+01
 D   1 1.00       0.000000000000
      0.8000000000D+00  0.1000000000D+01
 ****
      6 0
 S   6 1.00       0.000000000000
      0.3047524880D+04  0.1834737132D-02
      0.4573695180D+03  0.1403732281D-01
      0.1039486850D+03  0.6884262226D-01
      0.2921015530D+02  0.2321844432D+00
      0.9286662960D+01  0.4679413484D+00
      0.3163926960D+01  0.3623119853D+00
 SP   3 1.00       0.000000000000
      0.7868272350D+01 -0.1193324198D+00  0.6899906659D-01
      0.1881288540D+01 -0.1608541517D+00  0.3164239610D+00
      0.5442492580D+00  0.1143456438D+01  0.7443082909D+00
 SP   1 1.00       0.000000000000
      0.1687144782D+00  0.1000000000D+01  0.1000000000D+01
 D   1 1.00       0.000000000000
      0.8000000000D+00  0.1000000000D+01
 ****
      7 0
 S   3 1.00       0.000000000000
      0.1873113696D+02  0.3349460434D-01
      0.2825394365D+01  0.2347269535D+00
      0.6401216923D+00  0.8137573261D+00
 S   1 1.00       0.000000000000
      0.1612777588D+00  0.1000000000D+01
 ****
      8 0
 S   3 1.00       0.000000000000
      0.1873113696D+02  0.3349460434D-01
      0.2825394365D+01  0.2347269535D+00
      0.6401216923D+00  0.8137573261D+00
 S   1 1.00       0.000000000000
      0.1612777588D+00  0.1000000000D+01
 ****
      9 0
 S   3 1.00       0.000000000000
      0.1873113696D+02  0.3349460434D-01
      0.2825394365D+01  0.2347269535D+00
      0.6401216923D+00  0.8137573261D+00
 S   1 1.00       0.000000000000
      0.1612777588D+00  0.1000000000D+01
 ****
     10 0
 S   3 1.00       0.000000000000
      0.1873113696D+02  0.3349460434D-01
      0.2825394365D+01  0.2347269535D+00
      0.6401216923D+00  0.8137573261D+00
 S   1 1.00       0.000000000000
      0.1612777588D+00  0.1000000000D+01
 ****
     11 0
 S   6 1.00       0.000000000000
      0.3047524880D+04  0.1834737132D-02
      0.4573695180D+03  0.1403732281D-01
      0.1039486850D+03  0.6884262226D-01
      0.2921015530D+02  0.2321844432D+00
      0.9286662960D+01  0.4679413484D+00
      0.3163926960D+01  0.3623119853D+00
 SP   3 1.00       0.000000000000
      0.7868272350D+01 -0.1193324198D+00  0.6899906659D-01
      0.1881288540D+01 -0.1608541517D+00  0.3164239610D+00
      0.5442492580D+00  0.1143456438D+01  0.7443082909D+00
 SP   1 1.00       0.000000000000
      0.1687144782D+00  0.1000000000D+01  0.1000000000D+01
 D   1 1.00       0.000000000000
      0.8000000000D+00  0.1000000000D+01
 ****
     12 0
 S   6 1.00       0.000000000000
      0.4173511460D+04  0.1834772160D-02
      0.6274579110D+03  0.1399462700D-01
      0.1429020930D+03  0.6858655181D-01
      0.4023432930D+02  0.2322408730D+00
      0.1282021290D+02  0.4690699481D+00
      0.4390437010D+01  0.3604551991D+00
 SP   3 1.00       0.000000000000
      0.1162636186D+02 -0.1149611817D+00  0.6757974388D-01
      0.2716279807D+01 -0.1691174786D+00  0.3239072959D+00
      0.7722183966D+00  0.1145851947D+01  0.7408951398D+00
 SP   1 1.00       0.000000000000
      0.2120314975D+00  0.1000000000D+01  0.1000000000D+01
 D   1 1.00       0.000000000000
      0.8000000000D+00  0.1000000000D+01
 ****
     13 0
 S   6 1.00       0.000000000000
      0.5484671660D+04  0.1831074430D-02
      0.8252349460D+03  0.1395017220D-01
      0.1880469580D+03  0.6844507810D-01
      0.5296450000D+02  0.2327143360D+00
      0.1689757040D+02  0.4701928980D+00
      0.5799635340D+01  0.3585208530D+00
 SP   3 1.00       0.000000000000
      0.1553961625D+02 -0.1107775495D+00  0.7087426823D-01
      0.3599933586D+01 -0.1480262627D+00  0.3397528391D+00
      0.1013761750D+01  0.1130767015D+01  0.7271585773D+00
 SP   1 1.00       0.000000000000
      0.2700058226D+00  0.1000000000D+01  0.1000000000D+01
 D   1 1.00       0.000000000000
      0.8000000000D+00  0.1000000000D+01
 ****
     14 0
 S   6 1.00       0.000000000000
      0.5484671660D+04  0.1831074430D-02
      0.8252349460D+03  0.1395017220D-01
      0.1880469580D+03  0.6844507810D-01
      0.5296450000D+02  0.2327143360D+00
      0.1689757040D+02  0.4701928980D+00
      0.5799635340D+01  0.3585208530D+00
 SP   3 1.00       0.000000000000
      0.1553961625D+02 -0.1107775495D+00  0.7087426823D-01
      0.3599933586D+01 -0.1480262627D+00  0.3397528391D+00
      0.1013761750D+01  0.1130767015D+01  0.7271585773D+00
 SP   1 1.00       0.000000000000
      0.2700058226D+00  0.1000000000D+01  0.1000000000D+01
 D   1 1.00       0.000000000000
      0.8000000000D+00  0.1000000000D+01
 ****
     15 0
 S   6 1.00       0.000000000000
      0.5484671660D+04  0.1831074430D-02
      0.8252349460D+03  0.1395017220D-01
      0.1880469580D+03  0.6844507810D-01
      0.5296450000D+02  0.2327143360D+00
      0.1689757040D+02  0.4701928980D+00
      0.5799635340D+01  0.3585208530D+00
 SP   3 1.00       0.000000000000
      0.1553961625D+02 -0.1107775495D+00  0.7087426823D-01
      0.3599933586D+01 -0.1480262627D+00  0.3397528391D+00
      0.1013761750D+01  0.1130767015D+01  0.7271585773D+00
 SP   1 1.00       0.000000000000
      0.2700058226D+00  0.1000000000D+01  0.1000000000D+01
 D   1 1.00       0.000000000000
      0.8000000000D+00  0.1000000000D+01
 ****
     16 0
 S   3 1.00       0.000000000000
      0.1873113696D+02  0.3349460434D-01
      0.2825394365D+01  0.2347269535D+00
      0.6401216923D+00  0.8137573261D+00
 S   1 1.00       0.000000000000
      0.1612777588D+00  0.1000000000D+01
 ****

 There are   175 symmetry adapted basis functions of A   symmetry.
 Integral buffers will be    131072 words long.
 Raffenetti 1 integral format.
 Two-electron integral symmetry is turned on.
   175 basis functions,   328 primitive gaussians,   175 cartesian basis functions
    39 alpha electrons       39 beta electrons
       nuclear repulsion energy       578.5650391239 Hartrees.
 NAtoms=   16 NActive=   16 NUniq=   16 SFac= 1.00D+00 NAtFMM=   50 NAOKFM=F Big=F
 One-electron integrals computed using PRISM.
 NBasis=   175 RedAO= T  NBF=   175
 NBsUse=   175 1.00D-06 NBFU=   175
 Harris functional with IExCor=  205 diagonalized for initial guess.
 ExpMin= 1.61D-01 ExpMax= 5.48D+03 ExpMxC= 8.25D+02 IAcc=1 IRadAn=         1 AccDes= 0.00D+00
 HarFok:  IExCor=  205 AccDes= 0.00D+00 IRadAn=         1 IDoV= 1
 ScaDFX=  1.000000  1.000000  1.000000  1.000000
 FoFCou: FMM=F IPFlag=           0 FMFlag=      100000 FMFlg1=           0
         NFxFlg=           0 DoJE=T BraDBF=F KetDBF=T FulRan=T
         Omega=  0.000000  0.000000  1.000000  0.000000  0.000000 ICntrl=     500 IOpCl=  0
         NMat0=    1 NMatS0=    1 NMatT0=    0 NMatD0=    1 NMtDS0=    0 NMtDT0=    0
         I1Cent=           4 NGrid=           0.
 Petite list used in FoFCou.
 Initial guess orbital symmetries:
       Occupied  (A) (A) (A) (A) (A) (A) (A) (A) (A) (A) (A) (A)
                 (A) (A) (A) (A) (A) (A) (A) (A) (A) (A) (A) (A)
                 (A) (A) (A) (A) (A) (A) (A) (A) (A) (A) (A) (A)
                 (A) (A) (A)
       Virtual   (A) (A) (A) (A) (A) (A) (A) (A) (A) (A) (A) (A)
                 (A) (A) (A) (A) (A) (A) (A) (A) (A) (A) (A) (A)
                 (A) (A) (A) (A) (A) (A) (A) (A) (A) (A) (A) (A)
                 (A) (A) (A) (A) (A) (A) (A) (A) (A) (A) (A) (A)
                 (A) (A) (A) (A) (A) (A) (A) (A) (A) (A) (A) (A)
                 (A) (A) (A) (A) (A) (A) (A) (A) (A) (A) (A) (A)
                 (A) (A) (A) (A) (A) (A) (A) (A) (A) (A) (A) (A)
                 (A) (A) (A) (A) (A) (A) (A) (A) (A) (A) (A) (A)
                 (A) (A) (A) (A) (A) (A) (A) (A) (A) (A) (A) (A)
                 (A) (A) (A) (A) (A) (A) (A) (A) (A) (A) (A) (A)
                 (A) (A) (A) (A) (A) (A) (A) (A) (A) (A) (A) (A)
                 (A) (A) (A) (A)
 The electronic state of the initial guess is 1-A.
 Requested convergence on RMS density matrix=1.00D-08 within 600 cycles.
 Requested convergence on MAX density matrix=1.00D-06.
 Requested convergence on             energy=1.00D-06.
 No special actions if energy rises.
 Keep R1 ints in memory in canonical form, NReq=121771872.
 SCF Done:  E(RHF) =  -546.880223873     A.U. after   17 cycles
             Convg  =    0.6709D-08             -V/T =  2.0028

 **********************************************************************

            Population analysis using the SCF density.

 **********************************************************************

 Orbital symmetries:
       Occupied  (A) (A) (A) (A) (A) (A) (A) (A) (A) (A) (A) (A)
                 (A) (A) (A) (A) (A) (A) (A) (A) (A) (A) (A) (A)
                 (A) (A) (A) (A) (A) (A) (A) (A) (A) (A) (A) (A)
                 (A) (A) (A)
       Virtual   (A) (A) (A) (A) (A) (A) (A) (A) (A) (A) (A) (A)
                 (A) (A) (A) (A) (A) (A) (A) (A) (A) (A) (A) (A)
                 (A) (A) (A) (A) (A) (A) (A) (A) (A) (A) (A) (A)
                 (A) (A) (A) (A) (A) (A) (A) (A) (A) (A) (A) (A)
                 (A) (A) (A) (A) (A) (A) (A) (A) (A) (A) (A) (A)
                 (A) (A) (A) (A) (A) (A) (A) (A) (A) (A) (A) (A)
                 (A) (A) (A) (A) (A) (A) (A) (A) (A) (A) (A) (A)
                 (A) (A) (A) (A) (A) (A) (A) (A) (A) (A) (A) (A)
                 (A) (A) (A) (A) (A) (A) (A) (A) (A) (A) (A) (A)
                 (A) (A) (A) (A) (A) (A) (A) (A) (A) (A) (A) (A)
                 (A) (A) (A) (A) (A) (A) (A) (A) (A) (A) (A) (A)
                 (A) (A) (A) (A)
 The electronic state is 1-A.
 Alpha  occ. eigenvalues --  -20.61137 -20.61041 -20.58568 -15.86000 -11.35941
 Alpha  occ. eigenvalues --  -11.33300 -11.29407 -11.28962 -11.28823 -11.28638
 Alpha  occ. eigenvalues --  -11.28273  -1.60871  -1.41440  -1.40235  -1.21456
 Alpha  occ. eigenvalues --   -1.10266  -1.08225  -0.97530  -0.90680  -0.86427
 Alpha  occ. eigenvalues --   -0.81554  -0.77266  -0.73082  -0.72377  -0.71387
 Alpha  occ. eigenvalues --   -0.68103  -0.66862  -0.64710  -0.63580  -0.57788
 Alpha  occ. eigenvalues --   -0.57647  -0.55574  -0.52801  -0.49600  -0.48659
 Alpha  occ. eigenvalues --   -0.45058  -0.43934  -0.38315  -0.38007
 Alpha virt. eigenvalues --    0.04536   0.08536   0.12451   0.18963   0.20670
 Alpha virt. eigenvalues --    0.23856   0.27911   0.28709   0.30538   0.32628
 Alpha virt. eigenvalues --    0.36201   0.38656   0.41390   0.46033   0.46312
 Alpha virt. eigenvalues --    0.51317   0.51758   0.54412   0.61552   0.66340
 Alpha virt. eigenvalues --    0.67884   0.69575   0.70604   0.72633   0.74131
 Alpha virt. eigenvalues --    0.76996   0.77794   0.78394   0.79185   0.80836
 Alpha virt. eigenvalues --    0.81702   0.83829   0.86418   0.89186   0.91005
 Alpha virt. eigenvalues --    0.94865   0.96753   0.98942   1.00757   1.03478
 Alpha virt. eigenvalues --    1.04650   1.06655   1.07338   1.08065   1.09486
 Alpha virt. eigenvalues --    1.10535   1.11838   1.13628   1.15679   1.17367
 Alpha virt. eigenvalues --    1.20587   1.21924   1.25892   1.26819   1.29216
 Alpha virt. eigenvalues --    1.30094   1.30697   1.31937   1.36256   1.37645
 Alpha virt. eigenvalues --    1.39694   1.41488   1.46221   1.48540   1.51238
 Alpha virt. eigenvalues --    1.60342   1.61735   1.65691   1.68485   1.70750
 Alpha virt. eigenvalues --    1.71406   1.72729   1.74138   1.78496   1.82856
 Alpha virt. eigenvalues --    1.83269   1.89185   1.96681   1.99869   2.01600
 Alpha virt. eigenvalues --    2.04418   2.06028   2.07986   2.10948   2.12174
 Alpha virt. eigenvalues --    2.15759   2.16504   2.19444   2.22357   2.27666
 Alpha virt. eigenvalues --    2.28590   2.31018   2.31675   2.33635   2.38388
 Alpha virt. eigenvalues --    2.39939   2.41754   2.43676   2.48591   2.50115
 Alpha virt. eigenvalues --    2.56168   2.57971   2.59406   2.65895   2.71744
 Alpha virt. eigenvalues --    2.72785   2.77628   2.86350   2.89676   2.90528
 Alpha virt. eigenvalues --    2.95472   2.97167   3.01136   3.03625   3.07603
 Alpha virt. eigenvalues --    3.09330   3.14716   3.20463   3.24745   3.25953
 Alpha virt. eigenvalues --    3.26444   3.33841   3.43140   3.56760   3.77039
 Alpha virt. eigenvalues --    4.16115   4.22203   4.23063   4.39431   4.47458
 Alpha virt. eigenvalues --    4.50480   4.52344   4.64010   4.75346   4.79696
 Alpha virt. eigenvalues --    5.12005
     Molecular Orbital Coefficients:
                           1         2         3         4         5
                           O         O         O         O         O
     Eigenvalues --   -20.61137 -20.61041 -20.58568 -15.86000 -11.35941
   1 1   C  1S          0.00000   0.00001   0.00000  -0.00002  -0.00002
   2        2S          0.00000   0.00002   0.00001  -0.00009  -0.00017
   3        2PX         0.00003   0.00001   0.00000  -0.00003   0.00001
   4        2PY         0.00001   0.00000   0.00000   0.00000   0.00003
   5        2PZ         0.00000   0.00000   0.00000  -0.00001   0.00000
   6        3S          0.00008  -0.00021  -0.00006   0.00128   0.00299
   7        3PX        -0.00010  -0.00024   0.00013  -0.00024   0.00043
   8        3PY        -0.00002  -0.00024  -0.00007   0.00125   0.00136
   9        3PZ         0.00000   0.00002   0.00000   0.00006   0.00014
  10        4XX         0.00002   0.00001   0.00000  -0.00007   0.00002
  11        4YY         0.00001  -0.00001   0.00000   0.00006   0.00001
  12        4ZZ         0.00001   0.00002   0.00000  -0.00006  -0.00005
  13        4XY         0.00000  -0.00001   0.00000   0.00001   0.00002
  14        4XZ         0.00000   0.00001   0.00000   0.00000   0.00000
  15        4YZ         0.00000   0.00001   0.00000   0.00000   0.00001
  16 2   C  1S          0.00000   0.00000   0.00000  -0.00001   0.00002
  17        2S          0.00002   0.00001  -0.00001  -0.00003   0.00009
  18        2PX         0.00000   0.00000   0.00000  -0.00003   0.00002
  19        2PY         0.00000   0.00000   0.00000  -0.00001  -0.00001
  20        2PZ         0.00000   0.00000   0.00000   0.00000   0.00000
  21        3S         -0.00018  -0.00010   0.00017  -0.00069  -0.00167
  22        3PX        -0.00012  -0.00009   0.00012  -0.00012  -0.00085
  23        3PY        -0.00002   0.00011   0.00002  -0.00024  -0.00101
  24        3PZ         0.00000  -0.00001   0.00000  -0.00002  -0.00009
  25        4XX        -0.00001  -0.00001   0.00000   0.00001   0.00000
  26        4YY         0.00000   0.00000   0.00000  -0.00001   0.00000
  27        4ZZ         0.00001   0.00001   0.00000  -0.00003   0.00002
  28        4XY         0.00000   0.00000   0.00000   0.00000   0.00001
  29        4XZ         0.00000   0.00000   0.00000   0.00000   0.00000
  30        4YZ         0.00000   0.00000   0.00000   0.00000   0.00000
  31 3   C  1S          0.00000   0.00000   0.00000  -0.00001  -0.00003
  32        2S          0.00000   0.00000   0.00002  -0.00004  -0.00022
  33        2PX         0.00000   0.00000   0.00000  -0.00001   0.00003
  34        2PY         0.00000   0.00000   0.00000   0.00001   0.00004
  35        2PZ         0.00000   0.00000   0.00000   0.00000  -0.00001
  36        3S          0.00000  -0.00003  -0.00034   0.00066   0.00336
  37        3PX         0.00004   0.00003  -0.00018   0.00031   0.00188
  38        3PY        -0.00002   0.00005  -0.00009  -0.00011   0.00009
  39        3PZ        -0.00001   0.00001   0.00000   0.00000   0.00009
  40        4XX         0.00000   0.00000   0.00000  -0.00001   0.00003
  41        4YY         0.00000   0.00000   0.00000   0.00000   0.00001
  42        4ZZ         0.00000   0.00000   0.00001  -0.00002  -0.00007
  43        4XY         0.00000   0.00000   0.00000   0.00000   0.00003
  44        4XZ         0.00000   0.00000   0.00000   0.00000   0.00001
  45        4YZ         0.00000   0.00000   0.00000   0.00000   0.00001
  46 4   C  1S          0.00000   0.00000   0.00000  -0.00001   0.00000
  47        2S          0.00001   0.00002   0.00001  -0.00002  -0.00001
  48        2PX         0.00000   0.00000   0.00002  -0.00003  -0.00014
  49        2PY         0.00000   0.00000   0.00001   0.00003  -0.00012
  50        2PZ         0.00000   0.00000   0.00000   0.00000   0.00003
  51        3S         -0.00005  -0.00005   0.00013  -0.00091  -0.00376
  52        3PX        -0.00006   0.00000  -0.00020  -0.00012   0.00014
  53        3PY        -0.00003   0.00006  -0.00029   0.00050   0.00240
  54        3PZ         0.00002   0.00001   0.00000   0.00001  -0.00014
  55        4XX        -0.00001   0.00000   0.00000   0.00001   0.00004
  56        4YY         0.00000   0.00000   0.00000  -0.00001   0.00001
  57        4ZZ         0.00001   0.00001   0.00000  -0.00002  -0.00002
  58        4XY         0.00000   0.00000  -0.00002   0.00001  -0.00005
  59        4XZ         0.00000   0.00000   0.00000   0.00000  -0.00003
  60        4YZ         0.00000   0.00000   0.00000   0.00000   0.00000
  61 5   C  1S          0.00000   0.00000   0.00001  -0.00001   0.00519
  62        2S          0.00000  -0.00001   0.00002  -0.00004   0.00035
  63        2PX         0.00001   0.00001  -0.00002   0.00002   0.00005
  64        2PY        -0.00001  -0.00002  -0.00001   0.00005  -0.00011
  65        2PZ         0.00000   0.00000   0.00001   0.00000  -0.00001
  66        3S         -0.00009   0.00015  -0.00046   0.00117   0.00317
  67        3PX         0.00007   0.00013  -0.00013  -0.00142  -0.00215
  68        3PY         0.00028  -0.00001   0.00022  -0.00159   0.00134
  69        3PZ        -0.00003  -0.00001   0.00000  -0.00001   0.00030
  70        4XX         0.00002   0.00001  -0.00006  -0.00004  -0.00037
  71        4YY        -0.00001   0.00003   0.00007   0.00003  -0.00058
  72        4ZZ         0.00001   0.00000  -0.00001  -0.00003  -0.00013
  73        4XY        -0.00001  -0.00001   0.00000   0.00004  -0.00023
  74        4XZ         0.00000  -0.00001   0.00001   0.00001   0.00005
  75        4YZ         0.00001   0.00000   0.00001   0.00001   0.00003
  76 6   C  1S          0.00000   0.00000   0.00000   0.00002  -0.00007
  77        2S          0.00001   0.00001  -0.00003   0.00023  -0.00006
  78        2PX        -0.00005  -0.00004   0.00001   0.00016  -0.00008
  79        2PY         0.00000   0.00003  -0.00002  -0.00006  -0.00005
  80        2PZ        -0.00003   0.00002  -0.00001   0.00001   0.00001
  81        3S         -0.00016  -0.00018   0.00035  -0.00023  -0.00087
  82        3PX        -0.00044  -0.00057   0.00002   0.00342   0.00170
  83        3PY         0.00025  -0.00014   0.00028  -0.00110   0.00174
  84        3PZ         0.00000  -0.00005   0.00001   0.00009  -0.00011
  85        4XX        -0.00008  -0.00004   0.00000   0.00007   0.00000
  86        4YY         0.00000  -0.00005  -0.00001  -0.00004   0.00013
  87        4ZZ        -0.00001   0.00000   0.00000  -0.00006  -0.00003
  88        4XY        -0.00003   0.00006   0.00002  -0.00003  -0.00008
  89        4XZ        -0.00006   0.00005  -0.00001   0.00001  -0.00001
  90        4YZ         0.00003   0.00000   0.00000  -0.00002  -0.00001
  91 7   H  1S          0.00001   0.00002  -0.00001   0.00002  -0.00001
  92        2S         -0.00002  -0.00012  -0.00003   0.00045   0.00023
  93 8   H  1S          0.00000   0.00001   0.00000   0.00000  -0.00007
  94        2S         -0.00003   0.00001   0.00002   0.00000  -0.00032
  95 9   H  1S          0.00001   0.00000   0.00000   0.00000   0.00002
  96        2S          0.00001   0.00000  -0.00003   0.00008   0.00044
  97 10  H  1S          0.00000   0.00000   0.00003  -0.00001  -0.00016
  98        2S          0.00001  -0.00003   0.00006  -0.00011  -0.00058
  99 11  C  1S          0.00001   0.00000  -0.00001  -0.00001   0.99575
 100        2S          0.00001   0.00000   0.00043  -0.00004   0.02676
 101        2PX         0.00000   0.00000  -0.00013  -0.00003   0.00044
 102        2PY        -0.00001  -0.00001   0.00002  -0.00001  -0.00035
 103        2PZ         0.00001   0.00000   0.00004   0.00000  -0.00021
 104        3S         -0.00023  -0.00010  -0.00032   0.00111  -0.00657
 105        3PX         0.00001  -0.00002  -0.00059  -0.00035   0.00363
 106        3PY         0.00009   0.00006  -0.00002  -0.00043  -0.00067
 107        3PZ         0.00000   0.00001   0.00017   0.00007  -0.00097
 108        4XX         0.00000  -0.00001  -0.00077   0.00001  -0.00095
 109        4YY         0.00002   0.00001  -0.00006  -0.00001  -0.00185
 110        4ZZ         0.00002   0.00000  -0.00011  -0.00002  -0.00231
 111        4XY        -0.00001  -0.00001   0.00008   0.00002   0.00001
 112        4XZ         0.00001   0.00001   0.00028  -0.00002  -0.00054
 113        4YZ         0.00000   0.00000  -0.00003   0.00000   0.00009
 114 12  N  1S          0.00002   0.00002   0.00001   0.99526  -0.00001
 115        2S          0.00032   0.00034   0.00004   0.02424  -0.00001
 116        2PX         0.00006   0.00004   0.00001   0.00030   0.00002
 117        2PY         0.00004  -0.00008   0.00002  -0.00014  -0.00004
 118        2PZ         0.00009  -0.00009   0.00000   0.00004   0.00000
 119        3S          0.00023   0.00022  -0.00032  -0.00315  -0.00032
 120        3PX        -0.00061  -0.00058  -0.00006   0.00177   0.00006
 121        3PY         0.00009   0.00032  -0.00002  -0.00047  -0.00008
 122        3PZ        -0.00019   0.00008   0.00011   0.00026   0.00032
 123        4XX        -0.00020  -0.00006   0.00004  -0.00313  -0.00003
 124        4YY        -0.00013  -0.00038   0.00004  -0.00306  -0.00009
 125        4ZZ        -0.00062  -0.00054   0.00002  -0.00273  -0.00005
 126        4XY        -0.00018   0.00014   0.00001  -0.00001   0.00005
 127        4XZ        -0.00041   0.00018   0.00000   0.00013   0.00002
 128        4YZ        -0.00029  -0.00049  -0.00001   0.00042  -0.00002
 129 13  O  1S         -0.02678   0.99439   0.00000  -0.00018   0.00000
 130        2S         -0.00064   0.02102  -0.00004   0.00025  -0.00002
 131        2PX        -0.00003  -0.00059   0.00000  -0.00005   0.00000
 132        2PY        -0.00002   0.00114  -0.00001   0.00010   0.00002
 133        2PZ        -0.00005   0.00128   0.00000   0.00011   0.00001
 134        3S          0.00024   0.00395   0.00026  -0.00025   0.00021
 135        3PX        -0.00009   0.00012  -0.00002  -0.00003  -0.00007
 136        3PY         0.00015  -0.00017   0.00009  -0.00016   0.00008
 137        3PZ         0.00016  -0.00014   0.00006  -0.00023   0.00007
 138        4XX         0.00013  -0.00375  -0.00003   0.00002   0.00001
 139        4YY         0.00008  -0.00384  -0.00001   0.00001   0.00000
 140        4ZZ         0.00002  -0.00375  -0.00003  -0.00007   0.00001
 141        4XY        -0.00013  -0.00011   0.00000   0.00011  -0.00001
 142        4XZ        -0.00009   0.00001   0.00000   0.00004  -0.00002
 143        4YZ         0.00006   0.00019   0.00001  -0.00023   0.00003
 144 14  O  1S          0.99439   0.02676   0.00008  -0.00018  -0.00001
 145        2S          0.02102   0.00049   0.00003   0.00028   0.00000
 146        2PX        -0.00098  -0.00007   0.00000  -0.00008   0.00001
 147        2PY        -0.00057   0.00001   0.00001  -0.00005  -0.00004
 148        2PZ        -0.00143  -0.00003  -0.00001  -0.00013   0.00001
 149        3S          0.00394   0.00046  -0.00007  -0.00050  -0.00007
 150        3PX         0.00018  -0.00013   0.00002   0.00009   0.00006
 151        3PY         0.00006  -0.00005  -0.00004   0.00016   0.00010
 152        3PZ         0.00017  -0.00017   0.00000   0.00032   0.00000
 153        4XX        -0.00372  -0.00002   0.00003  -0.00002  -0.00006
 154        4YY        -0.00388  -0.00022   0.00003   0.00012  -0.00004
 155        4ZZ        -0.00372  -0.00014   0.00003  -0.00011  -0.00003
 156        4XY        -0.00005  -0.00001   0.00000  -0.00001   0.00000
 157        4XZ         0.00012   0.00015  -0.00001  -0.00018   0.00000
 158        4YZ         0.00016   0.00000   0.00001  -0.00016   0.00000
 159 15  O  1S         -0.00007  -0.00001   0.99469  -0.00001  -0.00031
 160        2S          0.00001   0.00000   0.02096  -0.00003   0.00068
 161        2PX         0.00000   0.00000  -0.00154   0.00001  -0.00029
 162        2PY        -0.00001  -0.00001   0.00014   0.00002   0.00003
 163        2PZ         0.00001   0.00000   0.00049  -0.00001   0.00012
 164        3S         -0.00001   0.00003   0.00467   0.00010  -0.00355
 165        3PX        -0.00004  -0.00002  -0.00004   0.00002   0.00171
 166        3PY         0.00002   0.00001   0.00001   0.00002  -0.00021
 167        3PZ        -0.00003   0.00000   0.00003   0.00001  -0.00068
 168        4XX         0.00003   0.00001  -0.00360  -0.00005   0.00011
 169        4YY         0.00001   0.00000  -0.00391  -0.00003   0.00020
 170        4ZZ         0.00002   0.00001  -0.00416  -0.00005   0.00038
 171        4XY         0.00000   0.00000  -0.00003   0.00000   0.00003
 172        4XZ         0.00000   0.00000  -0.00023   0.00000   0.00014
 173        4YZ         0.00001   0.00000   0.00006   0.00000  -0.00004
 174 16  H  1S          0.00000   0.00000  -0.00003  -0.00002   0.00004
 175        2S         -0.00001  -0.00002  -0.00009   0.00004   0.00243
                           6         7         8         9        10
                           O         O         O         O         O
     Eigenvalues --   -11.33300 -11.29407 -11.28962 -11.28823 -11.28638
   1 1   C  1S          0.01354  -0.00260   0.00073   0.93814  -0.33275
   2        2S         -0.00002  -0.00014  -0.00012   0.02622  -0.00959
   3        2PX        -0.00008   0.00001   0.00001   0.00010   0.00016
   4        2PY        -0.00012   0.00000  -0.00004   0.00044  -0.00025
   5        2PZ        -0.00005   0.00001   0.00000   0.00006  -0.00003
   6        3S          0.00708  -0.00082   0.00207  -0.01244   0.01149
   7        3PX         0.00027   0.00040  -0.00079   0.00032  -0.00178
   8        3PY         0.00374  -0.00046   0.00134  -0.00250   0.00320
   9        3PZ         0.00032   0.00001   0.00006  -0.00010   0.00014
  10        4XX        -0.00046   0.00008  -0.00002  -0.00158   0.00001
  11        4YY        -0.00025   0.00013  -0.00003  -0.00173   0.00033
  12        4ZZ        -0.00021   0.00000  -0.00007  -0.00229   0.00065
  13        4XY        -0.00006   0.00004  -0.00001   0.00009  -0.00002
  14        4XZ        -0.00001   0.00001   0.00000   0.00001   0.00000
  15        4YZ         0.00001   0.00001   0.00000   0.00003  -0.00002
  16 2   C  1S          0.00014  -0.00104   0.01668   0.33070   0.92539
  17        2S          0.00000  -0.00013   0.00046   0.00898   0.02590
  18        2PX        -0.00002  -0.00003   0.00001  -0.00007   0.00033
  19        2PY         0.00000  -0.00002  -0.00003   0.00005   0.00016
  20        2PZ         0.00001   0.00001   0.00000   0.00000   0.00002
  21        3S         -0.00321   0.00112  -0.00273   0.00136  -0.01577
  22        3PX        -0.00112   0.00052  -0.00113   0.00195  -0.00304
  23        3PY        -0.00127   0.00041  -0.00081   0.00036  -0.00223
  24        3PZ        -0.00011  -0.00001  -0.00003   0.00000  -0.00009
  25        4XX         0.00014  -0.00001  -0.00002  -0.00100  -0.00139
  26        4YY         0.00003   0.00000   0.00007  -0.00086  -0.00147
  27        4ZZ         0.00002  -0.00005  -0.00002  -0.00092  -0.00215
  28        4XY         0.00001   0.00000   0.00002   0.00005  -0.00018
  29        4XZ        -0.00001   0.00000   0.00000   0.00000  -0.00001
  30        4YZ         0.00000   0.00000   0.00000   0.00000   0.00003
  31 3   C  1S         -0.00024   0.00661   0.08836   0.03551   0.15376
  32        2S         -0.00021   0.00012   0.00220   0.00090   0.00404
  33        2PX        -0.00003  -0.00002  -0.00014  -0.00003  -0.00003
  34        2PY         0.00001  -0.00001  -0.00009   0.00007   0.00013
  35        2PZ         0.00000   0.00000   0.00000   0.00000   0.00000
  36        3S          0.00300  -0.00091   0.00556  -0.00099   0.00474
  37        3PX         0.00169  -0.00048   0.00287  -0.00064   0.00224
  38        3PY        -0.00047   0.00019   0.00052  -0.00034  -0.00182
  39        3PZ        -0.00001   0.00003  -0.00002   0.00000  -0.00009
  40        4XX        -0.00001   0.00006  -0.00052  -0.00008  -0.00054
  41        4YY         0.00000  -0.00001  -0.00060  -0.00012  -0.00073
  42        4ZZ        -0.00008  -0.00002  -0.00036  -0.00011  -0.00051
  43        4XY         0.00000   0.00003  -0.00013  -0.00004   0.00005
  44        4XZ         0.00000   0.00000   0.00000   0.00000   0.00000
  45        4YZ         0.00000   0.00000  -0.00001   0.00000  -0.00001
  46 4   C  1S          0.00014   0.13163   0.98279  -0.00907  -0.02896
  47        2S         -0.00001   0.00353   0.02743  -0.00038  -0.00079
  48        2PX        -0.00002  -0.00015   0.00019  -0.00002   0.00003
  49        2PY         0.00002   0.00005  -0.00026   0.00005   0.00004
  50        2PZ        -0.00001   0.00000  -0.00004   0.00000   0.00000
  51        3S         -0.00318   0.00257  -0.01525   0.00111  -0.00197
  52        3PX        -0.00038   0.00111  -0.00095  -0.00016  -0.00050
  53        3PY         0.00191  -0.00088   0.00317  -0.00088   0.00131
  54        3PZ         0.00006  -0.00012   0.00015  -0.00005   0.00004
  55        4XX         0.00010  -0.00073  -0.00141  -0.00001   0.00003
  56        4YY         0.00006  -0.00053  -0.00172   0.00002   0.00011
  57        4ZZ         0.00001  -0.00042  -0.00232  -0.00003   0.00009
  58        4XY        -0.00004   0.00005   0.00011   0.00002   0.00001
  59        4XZ         0.00000  -0.00001   0.00000   0.00000   0.00000
  60        4YZ         0.00000   0.00001   0.00001   0.00000   0.00000
  61 5   C  1S          0.01432   0.98672  -0.13218   0.00363   0.00296
  62        2S          0.00010   0.02769  -0.00398   0.00009  -0.00003
  63        2PX         0.00002   0.00004   0.00019   0.00005   0.00002
  64        2PY         0.00021  -0.00023   0.00004   0.00001   0.00005
  65        2PZ         0.00003  -0.00010   0.00001   0.00000   0.00000
  66        3S          0.00677  -0.01465   0.00884  -0.00225   0.00194
  67        3PX        -0.00209  -0.00066  -0.00244  -0.00016  -0.00123
  68        3PY        -0.00435   0.00141  -0.00220   0.00113  -0.00109
  69        3PZ        -0.00001   0.00039  -0.00005   0.00010  -0.00002
  70        4XX        -0.00036  -0.00161  -0.00029   0.00006   0.00001
  71        4YY        -0.00043  -0.00151  -0.00015   0.00011  -0.00005
  72        4ZZ        -0.00019  -0.00227   0.00015   0.00000  -0.00006
  73        4XY         0.00010  -0.00005   0.00011   0.00000  -0.00001
  74        4XZ         0.00001  -0.00002   0.00001   0.00001   0.00000
  75        4YZ        -0.00001  -0.00001   0.00000   0.00000   0.00001
  76 6   C  1S          0.99552  -0.01471   0.00188  -0.01341   0.00462
  77        2S          0.02758  -0.00056   0.00008  -0.00062   0.00019
  78        2PX         0.00083   0.00007   0.00000   0.00015  -0.00004
  79        2PY        -0.00021  -0.00019   0.00004   0.00010  -0.00007
  80        2PZ         0.00012   0.00001   0.00000  -0.00002   0.00000
  81        3S         -0.01470   0.00590  -0.00414   0.00635  -0.00484
  82        3PX         0.00522  -0.00027   0.00110  -0.00215   0.00193
  83        3PY        -0.00180   0.00235  -0.00151  -0.00011   0.00061
  84        3PZ        -0.00010  -0.00005  -0.00005  -0.00018   0.00013
  85        4XX        -0.00142  -0.00029   0.00011  -0.00035   0.00022
  86        4YY        -0.00136  -0.00055   0.00018  -0.00041   0.00022
  87        4ZZ        -0.00218  -0.00010   0.00004  -0.00011   0.00006
  88        4XY        -0.00002   0.00008  -0.00005  -0.00013   0.00010
  89        4XZ         0.00005   0.00002  -0.00001  -0.00004   0.00002
  90        4YZ        -0.00002  -0.00003   0.00000   0.00000   0.00000
  91 7   H  1S          0.00003  -0.00002   0.00006  -0.00021   0.00006
  92        2S          0.00076  -0.00004   0.00040   0.00114  -0.00004
  93 8   H  1S         -0.00005   0.00002  -0.00004  -0.00006  -0.00021
  94        2S         -0.00025   0.00018  -0.00018   0.00083   0.00099
  95 9   H  1S          0.00004  -0.00002  -0.00001  -0.00003  -0.00001
  96        2S          0.00044  -0.00004   0.00057   0.00000   0.00070
  97 10  H  1S         -0.00005  -0.00004  -0.00022   0.00004  -0.00005
  98        2S         -0.00042   0.00025   0.00118   0.00023  -0.00032
  99 11  C  1S         -0.00003  -0.00548   0.00073  -0.00004  -0.00001
 100        2S         -0.00016  -0.00006  -0.00016  -0.00004   0.00001
 101        2PX        -0.00005   0.00004   0.00001   0.00000  -0.00001
 102        2PY         0.00004   0.00009  -0.00004   0.00000  -0.00002
 103        2PZ         0.00003   0.00002   0.00000   0.00000   0.00000
 104        3S          0.00155   0.00352   0.00033   0.00024   0.00056
 105        3PX        -0.00050  -0.00033  -0.00047   0.00017  -0.00009
 106        3PY        -0.00074  -0.00150   0.00019  -0.00032  -0.00017
 107        3PZ         0.00004  -0.00015   0.00014  -0.00007   0.00004
 108        4XX         0.00004  -0.00044   0.00017  -0.00003   0.00002
 109        4YY         0.00005  -0.00039   0.00007   0.00002   0.00001
 110        4ZZ        -0.00005  -0.00011  -0.00002  -0.00002   0.00001
 111        4XY         0.00003  -0.00024   0.00007   0.00000   0.00000
 112        4XZ        -0.00003   0.00004  -0.00002   0.00000  -0.00001
 113        4YZ        -0.00001   0.00004  -0.00002   0.00000   0.00000
 114 12  N  1S         -0.00010   0.00002  -0.00002   0.00000  -0.00001
 115        2S          0.00069  -0.00003  -0.00003  -0.00011  -0.00001
 116        2PX        -0.00024   0.00001   0.00000   0.00001   0.00000
 117        2PY         0.00009  -0.00002  -0.00001   0.00001   0.00000
 118        2PZ        -0.00004  -0.00002   0.00000   0.00001   0.00000
 119        3S         -0.00266  -0.00032   0.00004   0.00039  -0.00005
 120        3PX         0.00219   0.00034  -0.00014   0.00023  -0.00033
 121        3PY        -0.00054  -0.00036   0.00029   0.00040  -0.00035
 122        3PZ         0.00034  -0.00006   0.00005   0.00084  -0.00045
 123        4XX        -0.00060   0.00008  -0.00005   0.00011  -0.00005
 124        4YY         0.00006   0.00006  -0.00003  -0.00001  -0.00004
 125        4ZZ         0.00002  -0.00002  -0.00003  -0.00002  -0.00002
 126        4XY         0.00027  -0.00002  -0.00002   0.00005   0.00000
 127        4XZ        -0.00011   0.00001   0.00000   0.00005  -0.00004
 128        4YZ        -0.00022   0.00000   0.00000  -0.00001   0.00001
 129 13  O  1S         -0.00002   0.00002  -0.00001  -0.00003   0.00000
 130        2S         -0.00018   0.00008  -0.00003  -0.00012   0.00002
 131        2PX         0.00008  -0.00002   0.00000   0.00004   0.00000
 132        2PY        -0.00003   0.00002   0.00000   0.00000   0.00000
 133        2PZ         0.00006   0.00000   0.00000   0.00001   0.00000
 134        3S          0.00056  -0.00041   0.00018   0.00079  -0.00030
 135        3PX        -0.00071   0.00002   0.00001  -0.00026   0.00010
 136        3PY         0.00037  -0.00012   0.00002   0.00021  -0.00009
 137        3PZ        -0.00001  -0.00011   0.00008   0.00011  -0.00005
 138        4XX         0.00005   0.00007  -0.00003  -0.00006   0.00001
 139        4YY        -0.00003   0.00006  -0.00002  -0.00007   0.00000
 140        4ZZ        -0.00010   0.00003   0.00000  -0.00010   0.00002
 141        4XY        -0.00019   0.00002   0.00000  -0.00004   0.00002
 142        4XZ        -0.00012  -0.00001   0.00000  -0.00004   0.00002
 143        4YZ         0.00008  -0.00002   0.00001   0.00003   0.00000
 144 14  O  1S         -0.00002  -0.00001   0.00000   0.00003  -0.00002
 145        2S         -0.00019  -0.00001  -0.00002   0.00017  -0.00009
 146        2PX         0.00012   0.00002   0.00000  -0.00002   0.00001
 147        2PY        -0.00002  -0.00003   0.00000   0.00000   0.00000
 148        2PZ        -0.00005   0.00000   0.00000   0.00000   0.00000
 149        3S          0.00040   0.00006   0.00003  -0.00111   0.00063
 150        3PX        -0.00079  -0.00008   0.00001   0.00030  -0.00013
 151        3PY         0.00015   0.00008  -0.00003   0.00014  -0.00007
 152        3PZ        -0.00001   0.00001  -0.00001   0.00033  -0.00021
 153        4XX         0.00013  -0.00002  -0.00002   0.00007  -0.00005
 154        4YY        -0.00019  -0.00004   0.00000   0.00012  -0.00007
 155        4ZZ        -0.00008  -0.00004  -0.00001   0.00006  -0.00002
 156        4XY         0.00000   0.00000  -0.00001  -0.00002   0.00001
 157        4XZ         0.00017   0.00002   0.00000  -0.00004   0.00002
 158        4YZ         0.00000  -0.00001   0.00002  -0.00003   0.00002
 159 15  O  1S         -0.00002   0.00003  -0.00002   0.00000   0.00000
 160        2S         -0.00006   0.00007  -0.00008   0.00002   0.00001
 161        2PX         0.00003  -0.00001   0.00001   0.00000   0.00000
 162        2PY         0.00002   0.00004  -0.00001   0.00001   0.00000
 163        2PZ         0.00000   0.00003  -0.00002   0.00000   0.00000
 164        3S          0.00018  -0.00086   0.00050  -0.00021  -0.00008
 165        3PX        -0.00003   0.00016  -0.00008   0.00004   0.00003
 166        3PY         0.00005   0.00015  -0.00006   0.00001   0.00002
 167        3PZ         0.00000  -0.00006   0.00005  -0.00002  -0.00002
 168        4XX        -0.00006   0.00014  -0.00007   0.00001   0.00000
 169        4YY        -0.00005   0.00011  -0.00005   0.00002   0.00001
 170        4ZZ        -0.00009   0.00000  -0.00004   0.00000   0.00001
 171        4XY         0.00000  -0.00002   0.00003   0.00000   0.00000
 172        4XZ        -0.00001  -0.00006   0.00002  -0.00001   0.00001
 173        4YZ         0.00001   0.00004  -0.00002   0.00000   0.00000
 174 16  H  1S         -0.00001  -0.00005  -0.00005   0.00001   0.00000
 175        2S          0.00022   0.00015  -0.00023   0.00012   0.00000
                          11        12        13        14        15
                           O         O         O         O         O
     Eigenvalues --   -11.28273  -1.60871  -1.41440  -1.40235  -1.21456
   1 1   C  1S          0.01824  -0.00458  -0.00069   0.00290  -0.09001
   2        2S          0.00060   0.01086   0.00159  -0.00561   0.17280
   3        2PX        -0.00002   0.00723  -0.00023  -0.00386   0.00135
   4        2PY         0.00002   0.00323   0.00116  -0.00080   0.06127
   5        2PZ         0.00000   0.00016   0.00029   0.00171   0.00367
   6        3S         -0.00491  -0.01941  -0.00778   0.00099   0.09539
   7        3PX         0.00075   0.00890   0.00118   0.00582   0.00052
   8        3PY        -0.00232  -0.02613  -0.00221   0.00245  -0.00348
   9        3PZ        -0.00009  -0.00009  -0.00030   0.00120   0.00028
  10        4XX         0.00016   0.00187  -0.00025  -0.00065   0.00793
  11        4YY         0.00008  -0.00111   0.00004  -0.00042   0.00596
  12        4ZZ         0.00002   0.00026  -0.00007   0.00020  -0.00799
  13        4XY        -0.00005   0.00061   0.00010  -0.00002   0.00193
  14        4XZ         0.00000   0.00000   0.00003   0.00042   0.00025
  15        4YZ         0.00000   0.00003   0.00001   0.00028   0.00076
  16 2   C  1S         -0.15940  -0.00036  -0.00071   0.00049  -0.07652
  17        2S         -0.00474   0.00201   0.00085  -0.00114   0.14595
  18        2PX        -0.00005   0.00161   0.00025  -0.00054   0.04192
  19        2PY        -0.00021   0.00030   0.00057   0.00000   0.03429
  20        2PZ        -0.00001  -0.00002   0.00002   0.00013   0.00141
  21        3S          0.00989   0.01416   0.00604   0.00088   0.09461
  22        3PX         0.00175   0.00176   0.00533   0.00219   0.00587
  23        3PY         0.00349   0.00242   0.00212  -0.00329   0.00745
  24        3PZ         0.00013  -0.00011   0.00033  -0.00032   0.00043
  25        4XX        -0.00008   0.00004   0.00007   0.00004   0.00659
  26        4YY        -0.00022   0.00012   0.00007  -0.00008   0.00542
  27        4ZZ         0.00022   0.00041  -0.00017  -0.00001  -0.00698
  28        4XY         0.00014   0.00004  -0.00008   0.00000  -0.00123
  29        4XZ         0.00001  -0.00004   0.00001   0.00002  -0.00008
  30        4YZ        -0.00002   0.00000   0.00002  -0.00002   0.00060
  31 3   C  1S          0.97910  -0.00008  -0.00090   0.00024  -0.07428
  32        2S          0.02749   0.00130   0.00297  -0.00071   0.14168
  33        2PX         0.00037   0.00061   0.00088  -0.00018   0.05131
  34        2PY        -0.00007  -0.00036   0.00016   0.00018  -0.01156
  35        2PZ        -0.00001  -0.00006  -0.00006  -0.00008  -0.00111
  36        3S         -0.01746  -0.01024  -0.01848   0.00400   0.08226
  37        3PX        -0.00416  -0.00630  -0.01004   0.00118   0.00355
  38        3PY         0.00123   0.00233  -0.00507  -0.00182   0.00115
  39        3PZ         0.00009   0.00007  -0.00048  -0.00003  -0.00013
  40        4XX        -0.00165   0.00013  -0.00010   0.00000   0.00496
  41        4YY        -0.00136  -0.00005  -0.00006   0.00002   0.00644
  42        4ZZ        -0.00227   0.00026   0.00008  -0.00001  -0.00672
  43        4XY         0.00009  -0.00007  -0.00017   0.00001   0.00078
  44        4XZ         0.00000  -0.00002  -0.00003   0.00000  -0.00012
  45        4YZ         0.00004  -0.00004  -0.00004   0.00001   0.00056
  46 4   C  1S         -0.08529  -0.00042  -0.00424   0.00069  -0.08285
  47        2S         -0.00268   0.00154   0.00813  -0.00111   0.15760
  48        2PX         0.00010   0.00147   0.00611  -0.00094   0.02507
  49        2PY         0.00019  -0.00102   0.00027  -0.00005  -0.04908
  50        2PZ         0.00001  -0.00010  -0.00036   0.00018  -0.00218
  51        3S          0.00934   0.02298   0.02595  -0.00727   0.10393
  52        3PX        -0.00002   0.00530  -0.00563  -0.00256   0.00648
  53        3PY        -0.00364  -0.00907  -0.01820   0.00312  -0.00699
  54        3PZ        -0.00011   0.00037   0.00084  -0.00031  -0.00025
  55        4XX        -0.00032   0.00011   0.00066  -0.00015   0.00831
  56        4YY        -0.00023   0.00020   0.00006   0.00000   0.00494
  57        4ZZ         0.00004   0.00029  -0.00030   0.00010  -0.00767
  58        4XY        -0.00015  -0.00031   0.00018   0.00002   0.00008
  59        4XZ         0.00000   0.00005   0.00011   0.00001  -0.00014
  60        4YZ        -0.00001  -0.00004  -0.00001   0.00001   0.00042
  61 5   C  1S          0.00472  -0.00420  -0.01979   0.00207  -0.09830
  62        2S          0.00020   0.00888   0.03667  -0.00395   0.18938
  63        2PX        -0.00004   0.00304   0.02075  -0.00193  -0.03117
  64        2PY         0.00002  -0.00609   0.01401  -0.00492  -0.04454
  65        2PZ         0.00000   0.00048  -0.00325   0.00235  -0.00182
  66        3S         -0.00396  -0.01692   0.01919  -0.00220   0.10466
  67        3PX         0.00230   0.03886   0.02422  -0.00953   0.00425
  68        3PY         0.00096   0.02976   0.00356   0.00061   0.00074
  69        3PZ        -0.00002  -0.00114  -0.00483   0.00218  -0.00092
  70        4XX         0.00015   0.00056   0.00458  -0.00058   0.00567
  71        4YY         0.00008   0.00017   0.00322   0.00004   0.00818
  72        4ZZ         0.00004  -0.00001  -0.00185   0.00026  -0.00828
  73        4XY        -0.00002  -0.00143   0.00486  -0.00111  -0.00271
  74        4XZ         0.00000  -0.00011  -0.00098   0.00043  -0.00035
  75        4YZ         0.00000  -0.00040  -0.00110  -0.00021   0.00007
  76 6   C  1S         -0.00012  -0.02555  -0.00592   0.00190  -0.11222
  77        2S         -0.00015   0.05061   0.01116  -0.00337   0.22049
  78        2PX         0.00005   0.04131   0.00037   0.00225  -0.03795
  79        2PY        -0.00001  -0.01368   0.01063   0.00917   0.01008
  80        2PZ         0.00000   0.00274   0.00209   0.01351   0.00144
  81        3S          0.00312  -0.00868   0.00483  -0.00431   0.12653
  82        3PX        -0.00224  -0.08515  -0.00552   0.00524  -0.03190
  83        3PY         0.00002   0.02545  -0.00214   0.00756   0.00792
  84        3PZ        -0.00004  -0.00255   0.00145   0.00066   0.00024
  85        4XX        -0.00006   0.00992   0.00001   0.00090   0.00591
  86        4YY        -0.00005   0.00009   0.00090  -0.00179   0.00970
  87        4ZZ        -0.00007  -0.00260  -0.00051   0.00071  -0.01031
  88        4XY         0.00001  -0.00417   0.00082   0.00230   0.00078
  89        4XZ         0.00000   0.00070   0.00074   0.00419   0.00073
  90        4YZ         0.00000  -0.00076  -0.00028  -0.00116   0.00031
  91 7   H  1S         -0.00005   0.00180  -0.00022  -0.00275   0.03306
  92        2S         -0.00040  -0.01120  -0.00020  -0.00010  -0.00240
  93 8   H  1S          0.00005   0.00000   0.00036  -0.00029   0.02712
  94        2S          0.00033  -0.00118   0.00145  -0.00030   0.00243
  95 9   H  1S         -0.00023  -0.00010   0.00028  -0.00009   0.02606
  96        2S          0.00097  -0.00206  -0.00179   0.00031   0.00092
  97 10  H  1S          0.00003   0.00010   0.00272  -0.00042   0.03069
  98        2S          0.00035   0.00175   0.00430  -0.00083   0.00267
  99 11  C  1S         -0.00005  -0.00193  -0.11273   0.02265  -0.01350
 100        2S         -0.00003   0.00518   0.21515  -0.04331   0.02865
 101        2PX         0.00000   0.00213   0.16185  -0.03358  -0.05040
 102        2PY         0.00002  -0.00189  -0.02252   0.00258  -0.02648
 103        2PZ        -0.00001  -0.00022  -0.05353   0.01187   0.01053
 104        3S         -0.00050  -0.02671   0.05420  -0.00961   0.01310
 105        3PX        -0.00026   0.00605  -0.02693   0.00414  -0.00567
 106        3PY         0.00024   0.01297   0.01772  -0.00375  -0.00067
 107        3PZ         0.00003  -0.00070   0.00926  -0.00145   0.00129
 108        4XX        -0.00001   0.00026   0.02562  -0.00547  -0.00100
 109        4YY        -0.00004   0.00023  -0.01476   0.00359   0.00568
 110        4ZZ        -0.00002   0.00014  -0.01235   0.00258  -0.00122
 111        4XY         0.00000  -0.00043  -0.00616   0.00104   0.00484
 112        4XZ         0.00001   0.00015  -0.01594   0.00352   0.00097
 113        4YZ         0.00001  -0.00001   0.00217  -0.00059  -0.00024
 114 12  N  1S         -0.00001  -0.15956   0.00278   0.00011  -0.01380
 115        2S         -0.00004   0.34962  -0.00739   0.00024   0.02843
 116        2PX        -0.00001   0.07553   0.00100   0.03819  -0.09989
 117        2PY         0.00000  -0.02964   0.03678   0.15963   0.03367
 118        2PZ         0.00000   0.01051   0.04844   0.25380  -0.00621
 119        3S          0.00063   0.21738   0.00281  -0.00301   0.06507
 120        3PX        -0.00016  -0.06196  -0.00028   0.00396  -0.04282
 121        3PY         0.00015   0.01751   0.00447   0.01284   0.01266
 122        3PZ        -0.00004  -0.00655   0.00106   0.02105  -0.00363
 123        4XX         0.00000  -0.00263   0.00135   0.00591   0.00845
 124        4YY         0.00000  -0.00382  -0.00150  -0.01049  -0.00217
 125        4ZZ        -0.00001   0.01241   0.00003   0.00460  -0.00566
 126        4XY        -0.00001  -0.00285   0.00245   0.01393  -0.00392
 127        4XZ         0.00001   0.00658   0.00464   0.02445   0.00001
 128        4YZ         0.00000   0.02179  -0.00227  -0.00785  -0.00291
 129 13  O  1S          0.00000  -0.10773   0.03146   0.14066   0.02454
 130        2S          0.00000   0.24045  -0.07055  -0.31583  -0.05646
 131        2PX         0.00000  -0.03113   0.00942   0.04508  -0.01509
 132        2PY         0.00000   0.06942  -0.01335  -0.05885  -0.00390
 133        2PZ         0.00000   0.08111  -0.01434  -0.05683  -0.01212
 134        3S          0.00001   0.18831  -0.06639  -0.29165  -0.05978
 135        3PX         0.00001  -0.00806   0.00592   0.02558  -0.00007
 136        3PY        -0.00001   0.02863  -0.00777  -0.03143  -0.00465
 137        3PZ        -0.00001   0.03679  -0.00814  -0.03145  -0.00595
 138        4XX         0.00000  -0.00295  -0.00038  -0.00213   0.00095
 139        4YY         0.00000   0.00696  -0.00119  -0.00506  -0.00095
 140        4ZZ         0.00000   0.01186  -0.00137  -0.00434  -0.00236
 141        4XY         0.00000  -0.00371   0.00161   0.00768  -0.00077
 142        4XZ         0.00000  -0.00555   0.00168   0.00728  -0.00052
 143        4YZ        -0.00001   0.01457  -0.00242  -0.00953  -0.00173
 144 14  O  1S          0.00000  -0.10944  -0.02443  -0.14085   0.02377
 145        2S         -0.00001   0.24393   0.05420   0.31678  -0.05462
 146        2PX         0.00000  -0.05650  -0.01158  -0.06292  -0.01173
 147        2PY         0.00000  -0.03825  -0.00008  -0.01983   0.01166
 148        2PZ         0.00000  -0.09018  -0.01120  -0.06723   0.01069
 149        3S          0.00002   0.19536   0.05220   0.29116  -0.05665
 150        3PX        -0.00001  -0.02031  -0.00668  -0.03521   0.00168
 151        3PY        -0.00001  -0.01960   0.00005  -0.01120   0.00347
 152        3PZ         0.00002  -0.04095  -0.00620  -0.03621   0.00545
 153        4XX         0.00000   0.00104   0.00113   0.00681   0.00121
 154        4YY         0.00000  -0.00004  -0.00038  -0.00258  -0.00083
 155        4ZZ        -0.00002   0.01467   0.00090   0.00758  -0.00229
 156        4XY         0.00000   0.00573   0.00023   0.00296  -0.00047
 157        4XZ         0.00000   0.01160   0.00218   0.01207  -0.00003
 158        4YZ         0.00000   0.00943   0.00006   0.00379  -0.00173
 159 15  O  1S         -0.00001  -0.00261  -0.19105   0.03921   0.02198
 160        2S         -0.00005   0.00653   0.42152  -0.08612  -0.04871
 161        2PX         0.00000  -0.00179  -0.12975   0.02688   0.00497
 162        2PY         0.00000  -0.00172   0.01035  -0.00394  -0.00752
 163        2PZ         0.00000   0.00104   0.04147  -0.00766  -0.00277
 164        3S          0.00035   0.00534   0.38712  -0.07995  -0.04899
 165        3PX        -0.00007  -0.00175  -0.05234   0.01055   0.00217
 166        3PY         0.00001  -0.00117   0.00076   0.00000  -0.00138
 167        3PZ         0.00004   0.00013   0.01623  -0.00314  -0.00086
 168        4XX        -0.00003   0.00096   0.01619  -0.00289  -0.00078
 169        4YY        -0.00003   0.00058  -0.00261   0.00106  -0.00004
 170        4ZZ        -0.00002   0.00081  -0.00091   0.00069   0.00043
 171        4XY        -0.00001   0.00010  -0.00140   0.00027   0.00070
 172        4XZ         0.00000  -0.00004  -0.00715   0.00146   0.00067
 173        4YZ         0.00000  -0.00007   0.00046  -0.00023  -0.00029
 174 16  H  1S         -0.00002   0.00063   0.02638  -0.00564   0.00766
 175        2S         -0.00003  -0.00244  -0.01224   0.00183   0.00007
                          16        17        18        19        20
                           O         O         O         O         O
     Eigenvalues --    -1.10266  -1.08225  -0.97530  -0.90680  -0.86427
   1 1   C  1S         -0.02724   0.10699   0.08352   0.05311  -0.06746
   2        2S          0.05441  -0.20711  -0.16238  -0.10492   0.13669
   3        2PX         0.09508   0.04710   0.04899  -0.11907   0.00455
   4        2PY         0.02047  -0.01911  -0.00901  -0.03594  -0.09416
   5        2PZ         0.00225  -0.00203   0.00092  -0.00194  -0.00071
   6        3S          0.03465  -0.15057  -0.13378  -0.08167   0.11547
   7        3PX         0.00668   0.00819  -0.00001  -0.03130   0.00611
   8        3PY        -0.00838   0.00357   0.00311   0.00695  -0.06283
   9        3PZ         0.00012  -0.00103   0.00097   0.00003   0.00035
  10        4XX        -0.00036  -0.01108  -0.00324   0.00407   0.00516
  11        4YY         0.00423  -0.00438  -0.00703  -0.00997   0.00426
  12        4ZZ        -0.00177   0.00873   0.00675   0.00428  -0.00459
  13        4XY         0.00846   0.00383   0.00210  -0.00713  -0.00508
  14        4XZ         0.00070  -0.00001   0.00041  -0.00046   0.00031
  15        4YZ         0.00036  -0.00066  -0.00045  -0.00072   0.00034
  16 2   C  1S          0.07317   0.10575   0.02410  -0.09453   0.01140
  17        2S         -0.13993  -0.20458  -0.04639   0.18910  -0.02261
  18        2PX         0.02477  -0.05281  -0.09479  -0.08547   0.06705
  19        2PY        -0.06611   0.00668   0.08985   0.01166  -0.09039
  20        2PZ        -0.00268   0.00015   0.00416   0.00095  -0.00360
  21        3S         -0.10491  -0.15125  -0.04414   0.16395  -0.01203
  22        3PX         0.00022  -0.00391  -0.01959  -0.04072   0.01735
  23        3PY        -0.00452   0.00258   0.02128  -0.01663  -0.01479
  24        3PZ        -0.00008   0.00039   0.00092   0.00012  -0.00142
  25        4XX         0.00099  -0.01142  -0.01166   0.00125   0.00502
  26        4YY        -0.01135  -0.00362   0.00820   0.01031  -0.00580
  27        4ZZ         0.00638   0.00869   0.00231  -0.00660   0.00105
  28        4XY         0.00098   0.00143  -0.00039   0.00246  -0.00134
  29        4XZ         0.00013   0.00016   0.00008  -0.00001  -0.00004
  30        4YZ        -0.00084  -0.00060   0.00029   0.00080  -0.00039
  31 3   C  1S          0.11576   0.02022  -0.09721  -0.01727   0.02875
  32        2S         -0.22206  -0.03895   0.19120   0.03462  -0.05818
  33        2PX        -0.04437   0.01617   0.00210  -0.06460   0.01551
  34        2PY         0.00694   0.09187   0.04737  -0.15887   0.08855
  35        2PZ         0.00104   0.00321   0.00149  -0.00578   0.00324
  36        3S         -0.16445  -0.02639   0.15769   0.02962  -0.03655
  37        3PX        -0.00323   0.00324  -0.01344  -0.02082   0.01957
  38        3PY         0.00122   0.01257   0.01269  -0.03255   0.02562
  39        3PZ        -0.00013   0.00030   0.00057  -0.00179   0.00083
  40        4XX        -0.00713   0.00298   0.00838  -0.00427  -0.00123
  41        4YY        -0.00930  -0.00574   0.00434   0.00649  -0.00157
  42        4ZZ         0.00972   0.00164  -0.00724  -0.00091   0.00214
  43        4XY        -0.00125   0.00870   0.00332  -0.01060   0.00554
  44        4XZ         0.00011   0.00027   0.00002  -0.00041   0.00021
  45        4YZ        -0.00084  -0.00042   0.00048   0.00043  -0.00032
  46 4   C  1S          0.08237  -0.08899  -0.03913   0.08040  -0.06606
  47        2S         -0.15793   0.17163   0.07845  -0.16037   0.13256
  48        2PX         0.04976   0.07890  -0.12509   0.03463  -0.01435
  49        2PY         0.04519   0.00780  -0.03800   0.01932   0.10513
  50        2PZ         0.00152  -0.00121   0.00022  -0.00047   0.00203
  51        3S         -0.11169   0.12966   0.05997  -0.11886   0.12732
  52        3PX         0.00675   0.01202  -0.02952   0.01904   0.00343
  53        3PY         0.00230   0.00735  -0.00137  -0.02248   0.06395
  54        3PZ         0.00087   0.00013   0.00032   0.00058   0.00232
  55        4XX        -0.00379   0.01108  -0.00249  -0.00160   0.00087
  56        4YY        -0.00800   0.00208   0.00706  -0.00731   0.00806
  57        4ZZ         0.00713  -0.00734  -0.00251   0.00605  -0.00468
  58        4XY        -0.00651  -0.00493   0.00827   0.00212   0.00047
  59        4XZ        -0.00011  -0.00038   0.00045  -0.00004   0.00007
  60        4YZ        -0.00043   0.00019   0.00018  -0.00036  -0.00001
  61 5   C  1S         -0.01599  -0.11933   0.06467  -0.03129   0.04701
  62        2S          0.03192   0.23326  -0.12760   0.06647  -0.09283
  63        2PX         0.07408  -0.03103  -0.01776   0.14962  -0.06079
  64        2PY        -0.06274   0.04620  -0.03282   0.09295   0.21916
  65        2PZ        -0.00150  -0.00254   0.00394  -0.00538   0.00427
  66        3S          0.02944   0.16494  -0.09498   0.03863  -0.09333
  67        3PX         0.02423  -0.00177  -0.01005   0.06934  -0.00530
  68        3PY        -0.00313   0.01706  -0.00742   0.04021   0.03741
  69        3PZ        -0.00150  -0.00128   0.00141  -0.00364  -0.00181
  70        4XX        -0.00678   0.01064   0.00052  -0.00145   0.00746
  71        4YY         0.00886   0.00421  -0.00710   0.00605  -0.00938
  72        4ZZ        -0.00099  -0.00887   0.00487  -0.00195   0.00320
  73        4XY        -0.00221  -0.00008  -0.00605   0.00864   0.00467
  74        4XZ        -0.00027  -0.00061   0.00017  -0.00065  -0.00005
  75        4YZ         0.00015  -0.00062   0.00028  -0.00108  -0.00107
  76 6   C  1S         -0.11112   0.00806  -0.00928   0.03445   0.05952
  77        2S          0.22394  -0.01644   0.02327  -0.06861  -0.12142
  78        2PX         0.06001   0.03090   0.17514   0.13435   0.05398
  79        2PY        -0.02839   0.12435  -0.04019   0.08097  -0.21209
  80        2PZ         0.00441   0.00203   0.00871   0.00417   0.00230
  81        3S          0.13516  -0.00434  -0.02005  -0.07040  -0.11915
[...]
              1
     1  C    0.000837
     2  C    0.239659
     3  C   -0.344424
     4  C    0.053464
     5  C    1.185957
     6  C   -1.071923
    11  C    0.462080
    12  N    0.121983
    13  O   -0.118775
    14  O   -0.164752
    15  O   -0.364106
 Sum of Mulliken charges with hydrogens summed into heavy atoms =   0.00000
 Electronic spatial extent (au):  <R**2>=           1514.6347
 Charge=              0.0000 electrons
 Dipole moment (field-independent basis, Debye):
    X=             -7.6867    Y=              1.0102    Z=              0.7201  Tot=              7.7861
 Quadrupole moment (field-independent basis, Debye-Ang):
   XX=            -66.4051   YY=            -56.1628   ZZ=            -67.8827
   XY=              0.2780   XZ=              0.9783   YZ=              0.6582
 Traceless Quadrupole moment (field-independent basis, Debye-Ang):
   XX=             -2.9216   YY=              7.3208   ZZ=             -4.3992
   XY=              0.2780   XZ=              0.9783   YZ=              0.6582
 Octapole moment (field-independent basis, Debye-Ang**2):
  XXX=            -36.2207  YYY=              5.3919  ZZZ=             -1.5432  XYY=            -18.3016
  XXY=             -3.9973  XXZ=              0.2698  XZZ=              8.1407  YZZ=              1.2072
  YYZ=              8.0661  XYZ=              0.8473
 Hexadecapole moment (field-independent basis, Debye-Ang**3):
 XXXX=          -1055.1542 YYYY=           -642.2953 ZZZZ=           -135.9213 XXXY=             -1.7671
 XXXZ=             -0.6897 YYYX=             -3.5950 YYYZ=              5.4438 ZZZX=             -0.8456
 ZZZY=             -0.2783 XXYY=           -313.6166 XXZZ=           -232.0370 YYZZ=           -147.8140
 XXYZ=              6.0243 YYXZ=             14.0939 ZZXY=              0.3643
 N-N= 5.782538852180D+02 E-N=-2.439225998663D+03  KE= 5.460189301685D+02

 Test job not archived.
 1\1\GINC-PALLAS\SP\RMP2\GTMP2large\C7H5N1O3\JMSOLANO\10-Mar-2020\0\\#N
  Geom=AllCheck Guess=TCheck SCRF=Check Test MP2=FrzG3/GTMP2Large\\2NBA
 La-2_opt, G3MP2, qcisd test\\0,1\C,0,-0.0056856381,0.0012667995,-0.000
 7889613\C,0,-0.0059795141,0.0094830492,1.3942483075\C,0,1.1988351809,0
 .00394448,2.097549163\C,0,2.4065925614,0.0114785614,1.4019904992\C,0,2
 .433919794,0.0043105908,0.003843857\C,0,1.2093442499,-0.0089019769,-0.
 6721744883\H,0,-0.9302260731,-0.0017622326,-0.5700555612\H,0,-0.951255
 4844,0.0093046324,1.9298220006\H,0,1.1964895231,0.007624234,3.18383461
 99\H,0,3.3492518731,0.0323370042,1.945918297\C,0,3.7432402032,0.159795
 5277,-0.6791954407\N,0,1.1582550019,-0.1269751631,-2.1288097612\O,0,0.
 4381410843,0.6867920509,-2.7302074321\O,0,1.7870260098,-1.06560384,-2.
 6391380878\O,0,3.8806505856,0.6072285261,-1.8092146646\H,0,4.620282055
 9,-0.119094081,-0.0611566853\\Version=EM64L-G09RevB.01\State=1-A\HF=-5
 47.052486\MP2=-549.0534813\RMSD=6.301e-09\PG=C01 [X(C7H5N1O3)]\\@


 WHAT THE SLIME CONTAINS, THE GLOWING REVEALS
 BY THE FLAME'S BRIGHT HUE WHEN YOU IGNITE IT.
   --  LEONARD THURNEYSSER, 1531-1596
 DESCRIBING HIS FLAME PHOTOLYSIS ANALYTIC METHOD

 Temperature=              298.150000 Pressure=                      1.000000
 E(ZPE)=                     0.108698 E(Thermal)=                    0.117803
 E(QCISD(T))=             -548.579777 E(Empiric)=                   -0.259812
 DE(MP2)=                   -0.569760
 G3MP2(0 K)=              -549.300651 G3MP2 Energy=               -549.291546
 G3MP2 Enthalpy=          -549.290601 G3MP2 Free Energy=          -549.335678

 Test job not archived.
 1\1\GINC-PALLAS\Mixed\G3MP2\G3MP2\C7H5N1O3\JMSOLANO\10-Mar-2020\0\\#G3
 MP2 QCISD=(Maxcyc=400) opt=(MaxCycles=400) scf=(MaxCycle=600) test GFI
 nput IOP(6/7=3)\\2NBALa-2_opt, G3MP2, qcisd test\\0,1\C,0,-0.005685638
 1,0.0012667995,-0.0007889613\C,0,-0.0059795141,0.0094830492,1.39424830
 75\C,0,1.1988351809,0.00394448,2.097549163\C,0,2.4065925614,0.01147856
 14,1.4019904992\C,0,2.433919794,0.0043105908,0.003843857\C,0,1.2093442
 499,-0.0089019769,-0.6721744883\H,0,-0.9302260731,-0.0017622326,-0.570
 0555612\H,0,-0.9512554844,0.0093046324,1.9298220006\H,0,1.1964895231,0
 .007624234,3.1838346199\H,0,3.3492518731,0.0323370042,1.945918297\C,0,
 3.7432402032,0.1597955277,-0.6791954407\N,0,1.1582550019,-0.1269751631
 ,-2.1288097612\O,0,0.4381410843,0.6867920509,-2.7302074321\O,0,1.78702
 60098,-1.06560384,-2.6391380878\O,0,3.8806505856,0.6072285261,-1.80921
 46646\H,0,4.6202820559,-0.119094081,-0.0611566853\\Version=EM64L-G09Re
 vB.01\State=1-A\MP2/G3Bas1=-548.4837216\QCISD(T)/G3Bas1=-548.5797774\M
 P2/GTMP2Large=-549.0534813\G3MP2=-549.3006508\FreqCoord=0.0104958177,0
 .0226464314,-0.0070248512,0.0090564904,0.0405553769,2.6179488412,2.266
 2448465,0.0245037132,3.9250609868,4.5362531301,0.0148035578,2.60929088
 55,4.5863342099,0.0150208359,-0.0067912089,2.2796317396,-0.0177549314,
 -1.2731112238,-1.7233101241,0.0138340385,-1.0559655362,-1.7574781882,0
 .0530810865,3.6176030843,2.2735770362,0.0326235446,5.9551157499,6.2928
 125449,0.0471655061,3.6316937983,7.0987703309,0.3063873734,-1.26816690
 07,2.1519601623,-0.2714231009,-4.0209755608,0.7028265892,1.0713296398,
 -5.1061154281,3.4133336092,-1.8775475397,-4.9601182263,7.4112671594,1.
 3378764773,-3.2295948788,8.6908189961,-0.4139386307,-0.1694119535\PG=C
 01 [X(C7H5N1O3)]\NImag=0\\0.84019432,-0.00224105,0.16774413,0.05109909
 ,0.01072988,0.78051404,-0.16865014,-0.00012313,0.05570406,0.83963328,-
 0.00284702,-0.07802543,-0.00129255,-0.00457551,0.16882136,-0.05625946,
 -0.00282183,-0.36046126,-0.04300035,0.00243332,0.76392168,0.06790056,-
 0.00026320,-0.11922650,-0.33049238,0.00292526,-0.03759231,0.74554277,0
 .00003312,0.00837043,0.00032397,0.00175958,-0.07797302,0.00094356,-0.0
 0313820,0.16822567,-0.03609590,0.00023235,-0.02397966,-0.14710120,0.00
 059430,-0.22452848,0.01002445,0.00188172,0.85932693,-0.03410835,-0.000
 87095,0.04984497,-0.07071204,0.00025844,-0.04539421,-0.30831811,0.0003
 6019,0.13997550,0.81888076,0.00105738,-0.00726467,-0.00214294,0.001141
 05,0.00905782,0.00184683,-0.00178896,-0.07906376,-0.00098738,0.0076170
 4,0.16868822,0.05600887,-0.00026703,-0.08907531,0.04074852,0.00105121,
 0.11021582,0.03051197,-0.00287403,-0.21737914,0.03941566,0.00182856,0.
 76909411,-0.07231678,0.00162048,0.05107943,-0.03314416,-0.00085398,-0.
 05557183,0.06238813,0.00084807,0.03105687,-0.16632983,0.00379779,0.052
 25276,0.75017220,0.00077721,0.01181824,-0.00551474,0.00204309,-0.00679
 858,0.00316363,-0.00379751,0.00988807,-0.00000338,0.00602765,-0.076189
 66,-0.00393892,0.02105860,0.17508705,-0.04374494,0.00054518,0.09862644
 ,-0.04783711,-0.00029135,-0.08717046,0.11568311,0.00319518,-0.02530076
 ,-0.04981898,-0.00045673,-0.36471642,0.00541981,-0.02370677,0.75527204
 ,-0.33510073,0.00283622,0.02562935,0.06366489,0.00460849,0.12485153,-0
 .12366778,0.00012416,0.00224404,0.06398837,-0.00094967,-0.12137389,-0.
 29644632,-0.01212907,-0.02247383,0.80025925,0.00580941,-0.07616330,0.0
 0193168,-0.00165046,0.00520261,-0.00300759,0.00308244,-0.00665532,-0.0
 0015709,-0.00353811,0.00649778,0.00265743,-0.00898062,-0.07396791,-0.0
 0883229,-0.02583979,0.20344468,0.14422736,0.00114698,-0.19922419,0.031
 10627,-0.00157566,-0.02815963,-0.00193182,-0.00044755,-0.00263335,-0.0
 2938451,0.00017390,-0.03189653,-0.11963154,-0.00286360,-0.18542815,-0.
 00633817,0.02892069,0.70075811,-0.30816419,-0.00106310,-0.13837710,0.0
 0861791,0.00017873,0.00284114,0.00108815,0.00011782,0.00145369,0.00040
 225,-0.00000003,0.00071704,-0.00359855,-0.00020337,0.00434486,-0.02078
 194,-0.00006548,-0.01788741,0.32072731,-0.00027034,-0.04824116,-0.0028
 9476,-0.00030912,0.00575348,0.00075154,-0.00074128,0.00784990,-0.00009
 223,0.00035558,-0.00073926,-0.00066538,0.00052018,0.00709642,0.0002388
 8,-0.00102772,0.00703007,-0.00152390,0.00050414,0.03230891,-0.14199383
 ,-0.00325285,-0.15646784,-0.03182490,-0.00007560,-0.00935920,0.0011674
 1,-0.00006108,-0.00651502,0.00094870,-0.00003673,-0.00090297,0.0038119
 5,0.00015561,-0.00183217,0.01615203,0.00053560,0.01464172,0.15071869,0
 .00253265,0.15996966,0.00637658,0.00002269,-0.00261660,-0.30978095,0.0
 0178612,0.13334080,-0.01909495,0.00016919,0.01847270,-0.00387991,0.000
 06988,-0.00417076,0.00006747,0.00007062,-0.00096411,0.00162244,0.00004
 393,-0.00103523,0.00075603,-0.00001192,0.00054589,0.32354320,0.0003809
 1,0.00546378,-0.00074321,0.00179865,-0.04886288,-0.00097168,0.00038772
 ,0.00616398,-0.00014575,0.00013431,0.00874533,0.00042085,-0.00006758,-
 0.00089058,-0.00034308,-0.00058556,0.00798758,0.00021202,-0.00009288,-
 0.00470332,0.00000478,-0.00201753,0.03228569,0.03323112,-0.00011737,-0
 .01092069,0.13317178,-0.00103923,-0.14952966,-0.01746768,0.00010795,0.
 01591066,-0.00406439,0.00005018,-0.00137705,-0.00094144,0.00009110,-0.
 00097864,-0.00118643,0.00001397,-0.00618333,-0.00049030,0.00007668,0.0
 0126550,-0.14382916,0.00114376,0.15106105,-0.00558726,0.00014942,-0.00
 313161,0.00753099,-0.00016193,-0.03297762,-0.07422493,0.00008175,-0.00
 119992,0.00698905,0.00023361,0.03314616,-0.00567919,0.00007501,0.00290
 800,-0.00177672,0.00008762,-0.00009267,0.00028010,-0.00007461,-0.00148
 341,0.00111825,-0.00003181,0.00074660,0.06958541,0.00053433,0.00888977
 ,-0.00016493,0.00008097,0.00588894,0.00046304,0.00010392,-0.04877109,-
 0.00141868,-0.00044995,0.00521529,0.00005852,-0.00020674,0.00791198,-0
 .00056400,-0.00032243,-0.00009415,0.00001746,-0.00002109,-0.00027285,0
 .00004761,-0.00003324,-0.00514628,0.00001083,-0.00022410,0.03236403,-0
 .00322136,-0.00002970,0.00025548,0.00315532,-0.00012947,-0.01105980,-0
 .00120293,-0.00128790,-0.38434858,-0.00306554,-0.00012892,-0.01115680,
 0.00340570,-0.00005560,0.00045538,-0.00008905,0.00002742,0.00087648,0.
 00026119,-0.00001754,-0.00058901,-0.00041873,0.00003822,0.00092949,0.0
 0124802,0.00147264,0.40439097,0.00020930,-0.00002917,0.00091632,-0.003
 96032,-0.00003140,0.00444405,-0.01965502,-0.00083186,-0.01908478,-0.30
 125750,-0.00450366,-0.13186420,0.00632648,0.00008535,-0.00012129,0.000
 92812,0.00017876,0.00082044,-0.00001156,-0.00000703,-0.00004728,-0.001
 07261,0.00011686,-0.00091762,0.00119677,0.00009535,0.00040896,0.316907
 72,-0.00031491,-0.00083925,0.00054772,-0.00009166,0.00769764,-0.000801
 87,0.00113587,0.00565682,-0.00000735,-0.00524802,-0.04708391,-0.001695
 86,-0.00121399,0.00450354,-0.00131632,0.00005215,0.00746480,0.00004529
 ,-0.00001114,-0.00070700,0.00001730,0.00001097,-0.00023164,-0.00000764
 ,0.00000286,-0.00467217,0.00000421,0.00513236,0.03195056,0.00082252,-0
 .00000322,-0.00092487,0.00404368,-0.00007488,-0.00153148,0.01745578,0.
 00029854,0.01586977,-0.13241928,-0.00176374,-0.15195842,-0.03189592,-0
 .00051981,-0.01182543,0.00170741,-0.00059317,-0.00608170,-0.00005805,0
 .00000786,0.00005580,0.00089093,-0.00004189,0.00056116,-0.00067024,0.0
 0001135,0.00092399,0.14304478,0.00239351,0.15504231,-0.00057226,-0.002
 39796,-0.00865190,0.00248971,0.00020214,0.00041058,0.00155520,-0.00019
 659,-0.00289114,0.01011496,-0.00394952,0.01127518,-0.23592464,0.000221
 45,0.03556677,-0.03165102,0.00105678,0.01104995,-0.00012336,-0.0000467
 5,0.00044118,0.00014880,0.00002831,-0.00006212,0.00126876,0.00000788,-
 0.00109489,-0.00099683,0.00043376,-0.00347782,0.64104838,0.00104423,0.
 00680175,0.00169947,-0.00090965,-0.00094761,-0.00072274,0.00093393,0.0
 0934810,-0.00115925,0.00033557,0.00355651,0.00340363,-0.00483438,-0.08
 966284,0.00038325,0.00248154,0.00356094,-0.00172633,0.00039883,0.00070
 148,-0.00014259,0.00007021,-0.00100277,-0.00000311,0.00033736,-0.00009
 113,-0.00018578,-0.00080131,-0.00503631,0.00087381,-0.01852842,0.44206
 572,-0.00988655,0.00090076,0.00202044,-0.00328281,-0.00012613,-0.00496
 550,0.00101821,-0.00044909,-0.00745975,0.03638844,0.00469725,-0.021581
 59,0.01011347,0.00315787,-0.12698742,-0.00747482,-0.00232615,0.0257861
 4,-0.00181103,0.00007804,0.00116167,-0.00017860,-0.00003041,-0.0000436
 1,0.00111101,-0.00006345,-0.00020623,0.00284295,-0.00004720,-0.0001164
 8,-0.02965894,-0.40650543,1.02288858,0.01751925,0.00381250,0.03937622,
 -0.00890620,0.00117307,0.00578431,-0.00454356,-0.00030246,-0.00026533,
 -0.00784101,0.00107076,-0.00642258,0.01300757,-0.00051775,-0.03426841,
 -0.14822142,-0.00700145,-0.00860181,-0.00280057,-0.00099544,0.00145462
 ,0.00030817,-0.00019198,0.00227198,-0.00025924,-0.00023139,-0.00001222
 ,0.00032602,0.00015055,-0.00213065,0.00004915,0.00024807,-0.01112396,0
 .78077553,-0.00311110,0.00048590,0.00392942,-0.00001907,0.00999656,-0.
 00256643,0.00302465,-0.00117168,0.00059162,-0.00092109,0.00844698,0.00
 419850,0.00303834,-0.00320468,-0.00468006,-0.01122964,-0.09888979,-0.0
 1607632,0.00269177,-0.00393889,-0.00121078,-0.00000430,0.00012830,0.00
 006535,0.00027933,-0.00116309,0.00006858,0.00005978,0.00103136,0.00019
 417,-0.00075025,-0.00338939,0.00790965,-0.46021790,0.80482653,0.009946
 03,-0.00650283,-0.02964970,0.00390416,-0.00110059,0.00091835,0.0034760
 7,0.00020699,0.00238337,-0.00608500,-0.00192747,0.00705483,-0.00547425
 ,0.00302238,-0.02322740,0.00107444,-0.00792946,-0.21594592,-0.00284635
 ,0.00190049,0.00127063,-0.00050201,-0.00012954,0.00037634,0.00003733,0
 .00029520,0.00022980,0.00064090,-0.00001856,0.00057358,-0.00857112,-0.
 00214643,0.00979732,0.05845091,0.05247392,0.90660388,-0.00739535,-0.00
 058014,0.00044572,0.00219397,-0.00117884,-0.00080955,0.00015017,0.0002
 1663,0.00006381,0.00122726,-0.00136512,0.00005321,0.00080090,-0.000605
 81,0.00034272,0.00847262,0.01882448,-0.01989884,0.00318329,0.00076066,
 0.00028389,-0.00000896,0.00005384,-0.00050220,0.00022471,0.00017615,0.
 00002647,-0.00003283,0.00001352,-0.00009665,0.00062872,0.00156149,0.00
 211006,-0.34642669,0.21992027,-0.20813453,0.39328277,0.00247725,0.0003
 9723,-0.00298393,0.00009929,-0.00020702,0.00151714,-0.00141336,0.00009
 312,-0.00029094,0.00137313,-0.00048696,-0.00129033,-0.00210985,0.00224
 077,0.00339615,0.01637883,0.01351253,0.01261547,-0.00123777,-0.0004127
 1,0.00051051,-0.00002642,-0.00007208,0.00009581,-0.00011702,-0.0000097
 7,0.00001591,-0.00002439,-0.00020413,0.00023264,-0.00011719,-0.0009466
 1,-0.00256745,0.22431949,-0.30382260,0.17843432,-0.33894842,0.36401545
 ,-0.00173259,0.00220080,-0.00515079,-0.00020319,-0.00101115,0.00217210
 ,-0.00259905,0.00004723,-0.00091721,-0.00026314,-0.00164292,-0.0033803
 5,0.00412604,0.00097767,-0.00499069,-0.04524238,0.03242207,-0.03029705
 ,0.00022349,0.00111864,-0.00254985,0.00018483,0.00014375,-0.00034281,-
 0.00001461,0.00014685,-0.00016394,-0.00005579,-0.00023427,-0.00092380,
 0.00406022,0.00232250,-0.00261763,-0.18953497,0.15855833,-0.34199285,0
 .23213506,-0.20274809,0.31797126,-0.00101604,-0.00111594,-0.00147304,0
 .00135780,-0.00141798,-0.00145613,0.00230850,0.00021344,0.00049023,-0.
 00016209,-0.00150007,0.00339830,-0.00222572,0.00067297,-0.00027049,0.0
 1792403,0.01759235,0.01442541,0.00077462,0.00144247,-0.00033133,-0.000
 06035,0.00009391,-0.00011220,0.00017881,0.00027785,-0.00000244,0.00000
 412,-0.00007418,0.00042966,-0.00369394,-0.00246978,0.00856107,-0.29427
 359,0.24799942,0.15179231,-0.05616183,0.09965665,0.00018061,0.33991377
 ,-0.00193364,0.00201733,-0.00432156,0.00107738,0.00015120,0.00052691,-
 0.00126891,-0.00000137,-0.00016055,0.00031350,0.00000634,-0.00197775,0
 .00044088,0.00092733,0.00305028,0.02306098,0.00028954,-0.01959559,-0.0
 0097462,-0.00130578,0.00090930,-0.00002626,-0.00004791,-0.00045822,-0.
 00015493,-0.00007505,-0.00008179,-0.00009755,-0.00018483,-0.00019299,0
 .00030231,-0.00115761,-0.00390445,0.23805548,-0.40633012,-0.21783453,0
 .10219042,-0.07600245,0.00971419,-0.35767652,0.48204021,-0.00600449,-0
 .00134180,-0.00393326,-0.00006622,0.00248334,-0.00181216,0.00077057,-0
 .00027934,-0.00118564,0.00061643,0.00123210,0.00031087,0.00029792,-0.0
 0186943,-0.00094019,0.03515310,-0.04446423,-0.02744335,0.00009452,-0.0
 0162529,0.00032486,0.00007017,0.00020576,-0.00082490,-0.00006987,-0.00
 026175,-0.00013980,-0.00019251,0.00003603,-0.00037077,0.00427170,-0.00
 023103,-0.00675599,0.13677038,-0.19692535,-0.30854427,-0.00432631,0.01
 125335,0.07040531,-0.16453913,0.23307215,0.27532604,0.00160115,0.00064
 347,0.00081472,0.00001550,-0.00014043,0.00118512,-0.00091968,0.0009127
 8,0.00230030,-0.00895085,-0.00064423,-0.00176315,0.00591292,-0.0234087
 1,0.05259850,0.00438345,0.00001227,-0.00209515,0.00006289,-0.00003111,
 -0.00013371,-0.00007531,-0.00002807,0.00007335,-0.00072525,0.00017269,
 0.00048339,0.00053061,-0.00033005,0.00080761,-0.13803070,-0.04709569,0
 .09535527,0.00107086,-0.00149759,0.00083601,-0.00001781,-0.00021996,-0
 .00069704,-0.00515899,-0.00281313,-0.00216771,0.11665634,-0.00100575,-
 0.00053704,0.00002661,0.00002016,0.00005587,-0.00021175,0.00028924,-0.
 00139664,0.00109970,-0.00427650,0.00171064,-0.00146388,-0.01109087,0.0
 1257371,0.02294438,0.00181594,-0.00082785,0.00135366,-0.00022435,-0.00
 012466,0.00009522,-0.00011331,0.00017529,-0.00000639,-0.00044604,-0.00
 008286,0.00027036,0.00051472,0.00046005,-0.00069415,-0.04431629,-0.267
 41832,0.36569830,0.00160803,-0.00411479,0.00087339,-0.00116991,0.00216
 356,-0.00197011,-0.00434474,-0.00006785,-0.00089301,0.06007225,0.25203
 269,0.00323139,-0.00131203,-0.00281849,0.00168553,0.00014060,0.0016376
 9,-0.00025406,-0.00102821,0.00037612,0.00402980,-0.00063477,0.00495311
 ,0.03785011,0.02386250,-0.03205621,-0.00552593,0.00055257,-0.00665020,
 0.00063932,0.00011833,-0.00035461,0.00021543,0.00015565,0.00010734,0.0
 0051701,-0.00005286,-0.00044758,-0.00103425,0.00085724,0.00073831,0.08
 690050,0.36995148,-0.76754451,0.00794923,-0.00676773,-0.00941740,-0.00
 166568,0.00195063,0.00265224,-0.01068873,0.00134242,0.00554434,-0.1190
 6421,-0.42228299,0.83891566,-0.00089007,-0.00040014,-0.00143311,0.0001
 4213,0.00007484,0.00020394,-0.00001706,-0.00036764,0.00055668,-0.00004
 297,-0.00028624,-0.00193308,-0.02301047,0.00963028,-0.01736461,-0.0035
 9724,0.00038787,0.00526773,-0.00041238,-0.00006771,0.00029011,0.000032
 10,0.00002090,0.00007871,-0.00012026,0.00003980,0.00011811,0.00055752,
 0.00035191,0.00154625,-0.24631095,0.06722800,-0.09408378,0.00021572,0.
 00073737,0.00145508,-0.00012094,-0.00009026,-0.00056750,0.00029091,-0.
 00049541,-0.00067856,0.02364486,0.00266742,-0.00478545,0.24963909,-0.0
 0039003,-0.00091774,0.00086985,-0.00034158,0.00018907,-0.00054208,0.00
 052838,-0.00056321,0.00002292,-0.00147078,-0.00109670,0.00055448,-0.00
 196634,0.01866713,0.00643730,0.00072558,0.00160778,-0.00067651,0.00000
 253,-0.00029463,-0.00002895,-0.00001064,0.00000751,-0.00002367,-0.0000
 3652,0.00010843,0.00001936,0.00014319,0.00019446,-0.00012804,0.0680503
 4,-0.09638191,0.03357788,-0.00097957,0.00110940,0.00038272,0.00013077,
 -0.00025835,-0.00004550,0.00065015,-0.00025899,-0.00039149,0.01439552,
 0.00539819,0.03314716,-0.07943100,0.07248954,0.00037275,-0.00010727,0.
 00118966,-0.00020353,0.00001384,-0.00028802,0.00016679,-0.00057795,0.0
 0038074,-0.00072446,-0.00010722,0.00179584,0.01410092,0.00404151,0.011
 10007,0.00289262,0.00024857,-0.00211905,0.00017631,-0.00000401,-0.0001
 1918,-0.00000555,0.00008077,-0.00001084,-0.00007419,0.00000216,0.00005
 014,0.00019932,0.00022776,-0.00003199,-0.09956813,0.03418855,-0.123375
 45,0.00030228,0.00023712,-0.00043057,-0.00002718,-0.00014121,0.0001260
 7,-0.00040412,-0.00008782,0.00003890,-0.02853330,0.03516064,-0.0356358
 1,0.11132948,-0.07317544,0.14732948\\0.00002860,0.00000291,-0.00006056
 ,0.00002911,-0.00000054,0.00004953,-0.00005904,0.00000081,-0.00000406,
 0.00002191,-0.00000295,-0.00006068,0.00004862,0.00000404,0.00007062,-0
 .00006130,-0.00000416,0.00000302,-0.00000220,-0.00000108,0.00000595,-0
 .00000166,0.00000063,-0.00000520,0.00000484,-0.00000036,-0.00000223,0.
 00000144,-0.00000053,0.00000024,-0.00001478,-0.00000845,0.00003497,-0.
 00003339,0.00005675,0.00007335,0.00000374,-0.00001119,-0.00002626,0.00
 003130,-0.00003949,-0.00004431,-0.00000612,0.00000348,-0.00002145,0.00
 000893,0.00000015,-0.00001293\\\@
 Job cpu time:  0 days  0 hours 38 minutes 13.7 seconds.
 File lengths (MBytes):  RWF=  12534 Int=      0 D2E=      0 Chk=     11 Scr=      1
 Normal termination of Gaussian 09 at Tue Mar 10 21:23:36 2020.
