 Entering Gaussian System, Link 0=g09
 Input=2NBALb-2_opt.inp
 Output=2NBALb-2_opt.log
 Initial command:
 /usr/local/g09/l1.exe /home/g09scr/Gau-27220.inp -scrdir=/home/g09scr/
 Entering Link 1 = /usr/local/g09/l1.exe PID=     27222.
  
 Copyright (c) 1988,1990,1992,1993,1995,1998,2003,2009,2010,
            Gaussian, Inc.  All Rights Reserved.
  
 This is part of the Gaussian(R) 09 program.  It is based on
 the Gaussian(R) 03 system (copyright 2003, Gaussian, Inc.),
 the Gaussian(R) 98 system (copyright 1998, Gaussian, Inc.),
 the Gaussian(R) 94 system (copyright 1995, Gaussian, Inc.),
 the Gaussian 92(TM) system (copyright 1992, Gaussian, Inc.),
 the Gaussian 90(TM) system (copyright 1990, Gaussian, Inc.),
 the Gaussian 88(TM) system (copyright 1988, Gaussian, Inc.),
 the Gaussian 86(TM) system (copyright 1986, Carnegie Mellon
 University), and the Gaussian 82(TM) system (copyright 1983,
 Carnegie Mellon University). Gaussian is a federally registered
 trademark of Gaussian, Inc.
  
 This software contains proprietary and confidential information,
 including trade secrets, belonging to Gaussian, Inc.
  
 This software is provided under written license and may be
 used, copied, transmitted, or stored only in accord with that
 written license.
  
 The following legend is applicable only to US Government
 contracts under FAR:
  
                    RESTRICTED RIGHTS LEGEND
  
 Use, reproduction and disclosure by the US Government is
 subject to restrictions as set forth in subparagraphs (a)
 and (c) of the Commercial Computer Software - Restricted
 Rights clause in FAR 52.227-19.
  
 Gaussian, Inc.
 340 Quinnipiac St., Bldg. 40, Wallingford CT 06492
  
  
 ---------------------------------------------------------------
 Warning -- This program may not be used in any manner that
 competes with the business of Gaussian, Inc. or will provide
 assistance to any competitor of Gaussian, Inc.  The licensee
 of this program is prohibited from giving any competitor of
 Gaussian, Inc. access to this program.  By using this program,
 the user acknowledges that Gaussian, Inc. is engaged in the
 business of creating and licensing software in the field of
 computational chemistry and represents and warrants to the
 licensee that it is not a competitor of Gaussian, Inc. and that
 it will not use this program in any manner prohibited above.
 ---------------------------------------------------------------
  

 Cite this work as:
 Gaussian 09, Revision B.01,
 M. J. Frisch, G. W. Trucks, H. B. Schlegel, G. E. Scuseria, 
 M. A. Robb, J. R. Cheeseman, G. Scalmani, V. Barone, B. Mennucci, 
 G. A. Petersson, H. Nakatsuji, M. Caricato, X. Li, H. P. Hratchian, 
 A. F. Izmaylov, J. Bloino, G. Zheng, J. L. Sonnenberg, M. Hada, 
 M. Ehara, K. Toyota, R. Fukuda, J. Hasegawa, M. Ishida, T. Nakajima, 
 Y. Honda, O. Kitao, H. Nakai, T. Vreven, J. A. Montgomery, Jr., 
 J. E. Peralta, F. Ogliaro, M. Bearpark, J. J. Heyd, E. Brothers, 
 K. N. Kudin, V. N. Staroverov, T. Keith, R. Kobayashi, J. Normand, 
 K. Raghavachari, A. Rendell, J. C. Burant, S. S. Iyengar, J. Tomasi, 
 M. Cossi, N. Rega, J. M. Millam, M. Klene, J. E. Knox, J. B. Cross, 
 V. Bakken, C. Adamo, J. Jaramillo, R. Gomperts, R. E. Stratmann, 
 O. Yazyev, A. J. Austin, R. Cammi, C. Pomelli, J. W. Ochterski, 
 R. L. Martin, K. Morokuma, V. G. Zakrzewski, G. A. Voth, 
 P. Salvador, J. J. Dannenberg, S. Dapprich, A. D. Daniels, 
 O. Farkas, J. B. Foresman, J. V. Ortiz, J. Cioslowski, 
 and D. J. Fox, Gaussian, Inc., Wallingford CT, 2010.
 
 ******************************************
 Gaussian 09:  EM64L-G09RevB.01 12-Aug-2010
                10-Mar-2020 
 ******************************************
 %chk=2NBALb-2_opt.chk
 %nprocshared=6
 Will use up to    6 processors via shared memory.
 %mem=100GB
 ----------------------------------------------------------------------
 #G3MP2 QCISD=(Maxcyc=400) opt=(MaxCycles=400) scf=(MaxCycle=600) test 
 GFInput IOP(6/7=3)
 ----------------------------------------------------------------------
 1/6=400,18=20,19=15,38=1/1,3;
 2/9=110,12=2,17=6,18=5,40=1/2;
 3/5=33,7=1,11=9,16=1,24=10,25=1,30=1,71=1/1,2,3;
 4//1;
 5/5=2,7=600,38=5/2;
 6/7=3,8=2,9=2,10=2,28=1/1;
 7//1,2,3,16;
 1/6=400,18=20,19=15/3(2);
 2/9=110/2;
 99//99;
 2/9=110/2;
 3/5=33,7=1,11=9,16=1,25=1,30=1,71=1/1,2,3;
 4/5=5,16=3/1;
 5/5=2,7=600,38=5/2;
 7//1,2,3,16;
 1/6=400,18=20,19=15/3(-5);
 2/9=110/2;
 6/7=3,8=2,9=2,10=2,19=2,28=1/1;
 99/9=1/99;
 -------------------------------
 2NBALb-2_opt, G3MP2, qcisd test
 -------------------------------
 Symbolic Z-matrix:
 Charge =  0 Multiplicity = 1
 C
 C                    1    r02
 C                    2    r03      1    a03
 C                    3    r04      2    a04      1    d04      0
 C                    4    r05      3    a05      2    d05      0
 C                    5    r06      4    a06      3    d06      0
 H                    1    r07      2    a07      3    d07      0
 H                    2    r08      3    a08      1    d08      0
 H                    3    r09      4    a09      2    d09      0
 H                    4    r10      5    a10      3    d10      0
 C                    5    r11      6    a11      4    d11      0
 N                    6    r12      1    a12      2    d12      0
 O                    12   r13      6    a13      5    d13      0
 O                    12   r14      6    a14      1    d14      0
 O                    11   r15      5    a15      4    d15      0
 H                    11   r16      5    a16      15   d16      0
       Variables:
  r02                   1.3902                   
  r03                   1.39393                  
  a03                 119.89285                  
  r04                   1.38917                  
  a04                 120.02213                  
  d04                   0.57015                  
  r05                   1.39906                  
  a05                 121.42089                  
  d05                  -0.78987                  
  r06                   1.40254                  
  a06                 117.22149                  
  d06                  -0.11287                  
  r07                   1.08167                  
  a07                 121.81075                  
  d07                 179.56121                  
  r08                   1.08418                  
  a08                 120.46285                  
  d08                 179.73517                  
  r09                   1.08449                  
  a09                 119.86903                  
  d09                 180.41743                  
  r10                   1.08386                  
  a10                 117.15981                  
  d10                 180.4672                   
  r11                   1.50182                  
  a11                 125.95917                  
  d11                 184.1702                   
  r12                   1.47617                  
  a12                 116.49966                  
  d12                 176.38061                  
  r13                   1.22248                  
  a13                 117.48988                  
  d13                 203.86153                  
  r14                   1.2259                   
  a14                 117.58176                  
  d14                 207.09993                  
  r15                   1.20799                  
  a15                 121.58063                  
  d15                  16.1097                   
  r16                   1.09994                  
  a16                 116.72986                  
  d16                 182.34386                  
 

 GradGradGradGradGradGradGradGradGradGradGradGradGradGradGradGradGradGrad
 Berny optimization.
 Initialization pass.
                           ----------------------------
                           !    Initial Parameters    !
                           ! (Angstroms and Degrees)  !
 --------------------------                            --------------------------
 ! Name  Definition              Value          Derivative Info.                !
 --------------------------------------------------------------------------------
 ! R1    R(1,2)                  1.3902         estimate D2E/DX2                !
 ! R2    R(1,6)                  1.3896         estimate D2E/DX2                !
 ! R3    R(1,7)                  1.0817         estimate D2E/DX2                !
 ! R4    R(2,3)                  1.3939         estimate D2E/DX2                !
 ! R5    R(2,8)                  1.0842         estimate D2E/DX2                !
 ! R6    R(3,4)                  1.3892         estimate D2E/DX2                !
 ! R7    R(3,9)                  1.0845         estimate D2E/DX2                !
 ! R8    R(4,5)                  1.3991         estimate D2E/DX2                !
 ! R9    R(4,10)                 1.0839         estimate D2E/DX2                !
 ! R10   R(5,6)                  1.4025         estimate D2E/DX2                !
 ! R11   R(5,11)                 1.5018         estimate D2E/DX2                !
 ! R12   R(6,12)                 1.4762         estimate D2E/DX2                !
 ! R13   R(11,15)                1.208          estimate D2E/DX2                !
 ! R14   R(11,16)                1.0999         estimate D2E/DX2                !
 ! R15   R(12,13)                1.2225         estimate D2E/DX2                !
 ! R16   R(12,14)                1.2259         estimate D2E/DX2                !
 ! A1    A(2,1,6)              119.326          estimate D2E/DX2                !
 ! A2    A(2,1,7)              121.8108         estimate D2E/DX2                !
 ! A3    A(6,1,7)              118.8561         estimate D2E/DX2                !
 ! A4    A(1,2,3)              119.8929         estimate D2E/DX2                !
 ! A5    A(1,2,8)              119.6438         estimate D2E/DX2                !
 ! A6    A(3,2,8)              120.4628         estimate D2E/DX2                !
 ! A7    A(2,3,4)              120.0221         estimate D2E/DX2                !
 ! A8    A(2,3,9)              120.1075         estimate D2E/DX2                !
 ! A9    A(4,3,9)              119.869          estimate D2E/DX2                !
 ! A10   A(3,4,5)              121.4209         estimate D2E/DX2                !
 ! A11   A(3,4,10)             121.4176         estimate D2E/DX2                !
 ! A12   A(5,4,10)             117.1598         estimate D2E/DX2                !
 ! A13   A(4,5,6)              117.2215         estimate D2E/DX2                !
 ! A14   A(4,5,11)             116.6971         estimate D2E/DX2                !
 ! A15   A(6,5,11)             125.9592         estimate D2E/DX2                !
 ! A16   A(1,6,5)              122.0984         estimate D2E/DX2                !
 ! A17   A(1,6,12)             116.4997         estimate D2E/DX2                !
 ! A18   A(5,6,12)             121.367          estimate D2E/DX2                !
 ! A19   A(5,11,15)            121.5806         estimate D2E/DX2                !
 ! A20   A(5,11,16)            116.7299         estimate D2E/DX2                !
 ! A21   A(15,11,16)           121.6466         estimate D2E/DX2                !
 ! A22   A(6,12,13)            117.4899         estimate D2E/DX2                !
 ! A23   A(6,12,14)            117.5818         estimate D2E/DX2                !
 ! A24   A(13,12,14)           124.9176         estimate D2E/DX2                !
 ! D1    D(6,1,2,3)              0.5464         estimate D2E/DX2                !
 ! D2    D(6,1,2,8)           -179.1909         estimate D2E/DX2                !
 ! D3    D(7,1,2,3)            179.5612         estimate D2E/DX2                !
 ! D4    D(7,1,2,8)             -0.1761         estimate D2E/DX2                !
 ! D5    D(2,1,6,5)             -1.4969         estimate D2E/DX2                !
 ! D6    D(2,1,6,12)           176.3806         estimate D2E/DX2                !
 ! D7    D(7,1,6,5)            179.459          estimate D2E/DX2                !
 ! D8    D(7,1,6,12)            -2.6635         estimate D2E/DX2                !
 ! D9    D(1,2,3,4)              0.5701         estimate D2E/DX2                !
 ! D10   D(1,2,3,9)           -179.8483         estimate D2E/DX2                !
 ! D11   D(8,2,3,4)           -179.6947         estimate D2E/DX2                !
 ! D12   D(8,2,3,9)             -0.1131         estimate D2E/DX2                !
 ! D13   D(2,3,4,5)             -0.7899         estimate D2E/DX2                !
 ! D14   D(2,3,4,10)           178.723          estimate D2E/DX2                !
 ! D15   D(9,3,4,5)            179.6276         estimate D2E/DX2                !
 ! D16   D(9,3,4,10)            -0.8595         estimate D2E/DX2                !
 ! D17   D(3,4,5,6)             -0.1129         estimate D2E/DX2                !
 ! D18   D(3,4,5,11)           176.1094         estimate D2E/DX2                !
 ! D19   D(10,4,5,6)          -179.6457         estimate D2E/DX2                !
 ! D20   D(10,4,5,11)           -3.4234         estimate D2E/DX2                !
 ! D21   D(4,5,6,1)              1.2675         estimate D2E/DX2                !
 ! D22   D(4,5,6,12)          -176.5079         estimate D2E/DX2                !
 ! D23   D(11,5,6,1)          -174.5623         estimate D2E/DX2                !
 ! D24   D(11,5,6,12)            7.6623         estimate D2E/DX2                !
 ! D25   D(4,5,11,15)           16.1097         estimate D2E/DX2                !
 ! D26   D(4,5,11,16)         -161.5464         estimate D2E/DX2                !
 ! D27   D(6,5,11,15)         -168.0411         estimate D2E/DX2                !
 ! D28   D(6,5,11,16)           14.3028         estimate D2E/DX2                !
 ! D29   D(1,6,12,13)           25.9673         estimate D2E/DX2                !
 ! D30   D(1,6,12,14)         -152.9001         estimate D2E/DX2                !
 ! D31   D(5,6,12,13)         -156.1385         estimate D2E/DX2                !
 ! D32   D(5,6,12,14)           24.9942         estimate D2E/DX2                !
 --------------------------------------------------------------------------------
 Trust Radius=3.00D-01 FncErr=1.00D-07 GrdErr=1.00D-07
 Number of steps in this run=    100 maximum allowed number of steps=    100.
 GradGradGradGradGradGradGradGradGradGradGradGradGradGradGradGradGradGrad

                          Input orientation:                          
 ---------------------------------------------------------------------
 Center     Atomic      Atomic             Coordinates (Angstroms)
 Number     Number       Type             X           Y           Z
 ---------------------------------------------------------------------
      1          6           0        0.000000    0.000000    0.000000
      2          6           0        0.000000    0.000000    1.390200
      3          6           0        1.208477    0.000000    2.084904
      4          6           0        2.410468    0.011969    1.388588
      5          6           0        2.443193    0.007739   -0.010086
      6          6           0        1.211456   -0.011554   -0.680592
      7          1           0       -0.919168   -0.007039   -0.570164
      8          1           0       -0.942268   -0.004320    1.926440
      9          1           0        1.212542   -0.002484    3.169387
     10          1           0        3.362785    0.032844    1.905697
     11          6           0        3.796060    0.112716   -0.653665
     12          7           0        1.139165   -0.094266   -2.152674
     13          8           0        0.127790    0.329947   -2.692699
     14          8           0        2.087868   -0.602156   -2.739915
     15          8           0        4.810683   -0.089602   -0.030084
     16          1           0        3.819202    0.421360   -1.709166
 ---------------------------------------------------------------------
                    Distance matrix (angstroms):
                    1          2          3          4          5
     1  C    0.000000
     2  C    1.390200   0.000000
     3  C    2.409822   1.393926   0.000000
     4  C    2.781848   2.410498   1.389165   0.000000
     5  C    2.443226   2.816034   2.431782   1.399063   0.000000
     6  C    1.389592   2.399153   2.765522   2.391588   1.402543
     7  H    1.081669   2.165166   3.402398   3.863101   3.408721
     8  H    2.144542   1.084178   2.156579   3.395642   3.900208
     9  H    3.393417   2.153084   1.084493   2.146271   3.409348
    10  H    3.865369   3.402226   2.161998   1.083856   2.125206
    11  C    3.853577   4.312790   3.769357   2.469983   1.501821
    12  N    2.437332   3.722705   4.239193   3.764045   2.510294
    13  O    2.715847   4.098202   4.909403   4.687071   3.558275
    14  O    3.496987   4.666865   4.941134   4.186378   2.819609
    15  O    4.811611   5.016762   4.178168   2.789978   2.369575
    16  H    4.205365   4.936590   4.624759   3.427567   2.225165
                    6          7          8          9         10
     6  C    0.000000
     7  H    2.133489   0.000000
     8  H    3.381597   2.496713   0.000000
     9  H    3.849990   4.304469   2.487594   0.000000
    10  H    3.364384   4.946372   4.305264   2.494335   0.000000
    11  C    2.587730   4.717488   5.396517   4.615579   2.597006
    12  N    1.476175   2.597822   4.580352   5.323358   4.629364
    13  O    2.310742   2.390573   4.753232   5.970867   5.630160
    14  O    2.314675   3.755563   5.595892   6.003803   4.859048
    15  O    3.658372   5.755840   6.077146   4.815685   2.420464
    16  H    2.836498   4.892137   6.005867   5.547486   3.664218
                   11         12         13         14         15
    11  C    0.000000
    12  N    3.057607   0.000000
    13  O    4.202505   1.222482   0.000000
    14  O    2.789516   1.225905   2.170933   0.000000
    15  O    1.207993   4.240926   5.403242   3.875515   0.000000
    16  H    1.099945   2.764990   3.821285   2.259989   2.015796
                   16
    16  H    0.000000
 Stoichiometry    C7H5NO3
 Framework group  C1[X(C7H5NO3)]
 Deg. of freedom    42
 Full point group                 C1      NOp   1
 Largest Abelian subgroup         C1      NOp   1
 Largest concise Abelian subgroup C1      NOp   1
                         Standard orientation:                         
 ---------------------------------------------------------------------
 Center     Atomic      Atomic             Coordinates (Angstroms)
 Number     Number       Type             X           Y           Z
 ---------------------------------------------------------------------
      1          6           0        0.215298   -1.795245    0.032228
      2          6           0       -1.087893   -2.277782    0.071035
      3          6           0       -2.159485   -1.386449    0.055342
      4          6           0       -1.925053   -0.018813   -0.010950
      5          6           0       -0.625233    0.497489   -0.046717
      6          6           0        0.432076   -0.423328   -0.010397
      7          1           0        1.069622   -2.458435    0.050032
      8          1           0       -1.262736   -3.346752    0.117676
      9          1           0       -3.177467   -1.758972    0.087979
     10          1           0       -2.741395    0.693345   -0.045022
     11          6           0       -0.494215    1.984772   -0.208852
     12          7           0        1.838501    0.022941    0.033254
     13          8           0        2.689711   -0.753041   -0.376326
     14          8           0        2.067151    1.134557    0.496797
     15          8           0       -1.428450    2.726602   -0.018747
     16          1           0        0.482211    2.361426   -0.547381
 ---------------------------------------------------------------------
 Rotational constants (GHZ):      1.4118756      1.2103282      0.6640283
 Standard basis: GTBas1 (6D, 7F)
 AO basis set in the form of general basis input (Overlap normalization):
      1 0
 S   6 1.00       0.000000000000
      0.3047524880D+04  0.1834737132D-02
      0.4573695180D+03  0.1403732281D-01
      0.1039486850D+03  0.6884262226D-01
      0.2921015530D+02  0.2321844432D+00
      0.9286662960D+01  0.4679413484D+00
      0.3163926960D+01  0.3623119853D+00
 SP   3 1.00       0.000000000000
      0.7868272350D+01 -0.1193324198D+00  0.6899906659D-01
      0.1881288540D+01 -0.1608541517D+00  0.3164239610D+00
      0.5442492580D+00  0.1143456438D+01  0.7443082909D+00
 SP   1 1.00       0.000000000000
      0.1687144782D+00  0.1000000000D+01  0.1000000000D+01
 D   1 1.00       0.000000000000
      0.8000000000D+00  0.1000000000D+01
 ****
      2 0
 S   6 1.00       0.000000000000
      0.3047524880D+04  0.1834737132D-02
      0.4573695180D+03  0.1403732281D-01
      0.1039486850D+03  0.6884262226D-01
      0.2921015530D+02  0.2321844432D+00
      0.9286662960D+01  0.4679413484D+00
      0.3163926960D+01  0.3623119853D+00
 SP   3 1.00       0.000000000000
      0.7868272350D+01 -0.1193324198D+00  0.6899906659D-01
      0.1881288540D+01 -0.1608541517D+00  0.3164239610D+00
      0.5442492580D+00  0.1143456438D+01  0.7443082909D+00
 SP   1 1.00       0.000000000000
      0.1687144782D+00  0.1000000000D+01  0.1000000000D+01
 D   1 1.00       0.000000000000
      0.8000000000D+00  0.1000000000D+01
 ****
      3 0
 S   6 1.00       0.000000000000
      0.3047524880D+04  0.1834737132D-02
      0.4573695180D+03  0.1403732281D-01
      0.1039486850D+03  0.6884262226D-01
      0.2921015530D+02  0.2321844432D+00
      0.9286662960D+01  0.4679413484D+00
      0.3163926960D+01  0.3623119853D+00
 SP   3 1.00       0.000000000000
      0.7868272350D+01 -0.1193324198D+00  0.6899906659D-01
      0.1881288540D+01 -0.1608541517D+00  0.3164239610D+00
      0.5442492580D+00  0.1143456438D+01  0.7443082909D+00
 SP   1 1.00       0.000000000000
      0.1687144782D+00  0.1000000000D+01  0.1000000000D+01
 D   1 1.00       0.000000000000
      0.8000000000D+00  0.1000000000D+01
 ****
      4 0
 S   6 1.00       0.000000000000
      0.3047524880D+04  0.1834737132D-02
      0.4573695180D+03  0.1403732281D-01
      0.1039486850D+03  0.6884262226D-01
      0.2921015530D+02  0.2321844432D+00
      0.9286662960D+01  0.4679413484D+00
      0.3163926960D+01  0.3623119853D+00
 SP   3 1.00       0.000000000000
      0.7868272350D+01 -0.1193324198D+00  0.6899906659D-01
      0.1881288540D+01 -0.1608541517D+00  0.3164239610D+00
      0.5442492580D+00  0.1143456438D+01  0.7443082909D+00
 SP   1 1.00       0.000000000000
      0.1687144782D+00  0.1000000000D+01  0.1000000000D+01
 D   1 1.00       0.000000000000
      0.8000000000D+00  0.1000000000D+01
 ****
      5 0
 S   6 1.00       0.000000000000
      0.3047524880D+04  0.1834737132D-02
      0.4573695180D+03  0.1403732281D-01
      0.1039486850D+03  0.6884262226D-01
      0.2921015530D+02  0.2321844432D+00
      0.9286662960D+01  0.4679413484D+00
      0.3163926960D+01  0.3623119853D+00
 SP   3 1.00       0.000000000000
      0.7868272350D+01 -0.1193324198D+00  0.6899906659D-01
      0.1881288540D+01 -0.1608541517D+00  0.3164239610D+00
      0.5442492580D+00  0.1143456438D+01  0.7443082909D+00
 SP   1 1.00       0.000000000000
      0.1687144782D+00  0.1000000000D+01  0.1000000000D+01
 D   1 1.00       0.000000000000
      0.8000000000D+00  0.1000000000D+01
 ****
      6 0
 S   6 1.00       0.000000000000
      0.3047524880D+04  0.1834737132D-02
      0.4573695180D+03  0.1403732281D-01
      0.1039486850D+03  0.6884262226D-01
      0.2921015530D+02  0.2321844432D+00
      0.9286662960D+01  0.4679413484D+00
      0.3163926960D+01  0.3623119853D+00
 SP   3 1.00       0.000000000000
      0.7868272350D+01 -0.1193324198D+00  0.6899906659D-01
      0.1881288540D+01 -0.1608541517D+00  0.3164239610D+00
      0.5442492580D+00  0.1143456438D+01  0.7443082909D+00
 SP   1 1.00       0.000000000000
      0.1687144782D+00  0.1000000000D+01  0.1000000000D+01
 D   1 1.00       0.000000000000
      0.8000000000D+00  0.1000000000D+01
 ****
      7 0
 S   3 1.00       0.000000000000
      0.1873113696D+02  0.3349460434D-01
      0.2825394365D+01  0.2347269535D+00
      0.6401216923D+00  0.8137573261D+00
 S   1 1.00       0.000000000000
      0.1612777588D+00  0.1000000000D+01
 ****
      8 0
 S   3 1.00       0.000000000000
      0.1873113696D+02  0.3349460434D-01
      0.2825394365D+01  0.2347269535D+00
      0.6401216923D+00  0.8137573261D+00
 S   1 1.00       0.000000000000
      0.1612777588D+00  0.1000000000D+01
 ****
      9 0
 S   3 1.00       0.000000000000
      0.1873113696D+02  0.3349460434D-01
      0.2825394365D+01  0.2347269535D+00
      0.6401216923D+00  0.8137573261D+00
 S   1 1.00       0.000000000000
      0.1612777588D+00  0.1000000000D+01
 ****
     10 0
 S   3 1.00       0.000000000000
      0.1873113696D+02  0.3349460434D-01
      0.2825394365D+01  0.2347269535D+00
      0.6401216923D+00  0.8137573261D+00
 S   1 1.00       0.000000000000
      0.1612777588D+00  0.1000000000D+01
 ****
     11 0
 S   6 1.00       0.000000000000
      0.3047524880D+04  0.1834737132D-02
      0.4573695180D+03  0.1403732281D-01
      0.1039486850D+03  0.6884262226D-01
      0.2921015530D+02  0.2321844432D+00
      0.9286662960D+01  0.4679413484D+00
      0.3163926960D+01  0.3623119853D+00
 SP   3 1.00       0.000000000000
      0.7868272350D+01 -0.1193324198D+00  0.6899906659D-01
      0.1881288540D+01 -0.1608541517D+00  0.3164239610D+00
      0.5442492580D+00  0.1143456438D+01  0.7443082909D+00
 SP   1 1.00       0.000000000000
      0.1687144782D+00  0.1000000000D+01  0.1000000000D+01
 D   1 1.00       0.000000000000
      0.8000000000D+00  0.1000000000D+01
 ****
     12 0
 S   6 1.00       0.000000000000
      0.4173511460D+04  0.1834772160D-02
      0.6274579110D+03  0.1399462700D-01
      0.1429020930D+03  0.6858655181D-01
      0.4023432930D+02  0.2322408730D+00
      0.1282021290D+02  0.4690699481D+00
      0.4390437010D+01  0.3604551991D+00
 SP   3 1.00       0.000000000000
      0.1162636186D+02 -0.1149611817D+00  0.6757974388D-01
      0.2716279807D+01 -0.1691174786D+00  0.3239072959D+00
      0.7722183966D+00  0.1145851947D+01  0.7408951398D+00
 SP   1 1.00       0.000000000000
      0.2120314975D+00  0.1000000000D+01  0.1000000000D+01
 D   1 1.00       0.000000000000
      0.8000000000D+00  0.1000000000D+01
 ****
     13 0
 S   6 1.00       0.000000000000
      0.5484671660D+04  0.1831074430D-02
      0.8252349460D+03  0.1395017220D-01
      0.1880469580D+03  0.6844507810D-01
      0.5296450000D+02  0.2327143360D+00
      0.1689757040D+02  0.4701928980D+00
      0.5799635340D+01  0.3585208530D+00
 SP   3 1.00       0.000000000000
      0.1553961625D+02 -0.1107775495D+00  0.7087426823D-01
      0.3599933586D+01 -0.1480262627D+00  0.3397528391D+00
      0.1013761750D+01  0.1130767015D+01  0.7271585773D+00
 SP   1 1.00       0.000000000000
      0.2700058226D+00  0.1000000000D+01  0.1000000000D+01
 D   1 1.00       0.000000000000
      0.8000000000D+00  0.1000000000D+01
 ****
     14 0
 S   6 1.00       0.000000000000
      0.5484671660D+04  0.1831074430D-02
      0.8252349460D+03  0.1395017220D-01
      0.1880469580D+03  0.6844507810D-01
      0.5296450000D+02  0.2327143360D+00
      0.1689757040D+02  0.4701928980D+00
      0.5799635340D+01  0.3585208530D+00
 SP   3 1.00       0.000000000000
      0.1553961625D+02 -0.1107775495D+00  0.7087426823D-01
      0.3599933586D+01 -0.1480262627D+00  0.3397528391D+00
      0.1013761750D+01  0.1130767015D+01  0.7271585773D+00
 SP   1 1.00       0.000000000000
      0.2700058226D+00  0.1000000000D+01  0.1000000000D+01
 D   1 1.00       0.000000000000
      0.8000000000D+00  0.1000000000D+01
 ****
     15 0
 S   6 1.00       0.000000000000
      0.5484671660D+04  0.1831074430D-02
      0.8252349460D+03  0.1395017220D-01
      0.1880469580D+03  0.6844507810D-01
      0.5296450000D+02  0.2327143360D+00
      0.1689757040D+02  0.4701928980D+00
      0.5799635340D+01  0.3585208530D+00
 SP   3 1.00       0.000000000000
      0.1553961625D+02 -0.1107775495D+00  0.7087426823D-01
      0.3599933586D+01 -0.1480262627D+00  0.3397528391D+00
      0.1013761750D+01  0.1130767015D+01  0.7271585773D+00
 SP   1 1.00       0.000000000000
      0.2700058226D+00  0.1000000000D+01  0.1000000000D+01
 D   1 1.00       0.000000000000
      0.8000000000D+00  0.1000000000D+01
 ****
     16 0
 S   3 1.00       0.000000000000
      0.1873113696D+02  0.3349460434D-01
      0.2825394365D+01  0.2347269535D+00
      0.6401216923D+00  0.8137573261D+00
 S   1 1.00       0.000000000000
      0.1612777588D+00  0.1000000000D+01
 ****

 There are   175 symmetry adapted basis functions of A   symmetry.
 Integral buffers will be    131072 words long.
 Raffenetti 1 integral format.
 Two-electron integral symmetry is turned on.
   175 basis functions,   328 primitive gaussians,   175 cartesian basis functions
    39 alpha electrons       39 beta electrons
       nuclear repulsion energy       572.1189514802 Hartrees.
 NAtoms=   16 NActive=   16 NUniq=   16 SFac= 1.00D+00 NAtFMM=   50 NAOKFM=F Big=F
 One-electron integrals computed using PRISM.
 NBasis=   175 RedAO= T  NBF=   175
 NBsUse=   175 1.00D-06 NBFU=   175
 Harris functional with IExCor=  205 diagonalized for initial guess.
 ExpMin= 1.61D-01 ExpMax= 5.48D+03 ExpMxC= 8.25D+02 IAcc=1 IRadAn=         1 AccDes= 0.00D+00
 HarFok:  IExCor=  205 AccDes= 0.00D+00 IRadAn=         1 IDoV= 1
 ScaDFX=  1.000000  1.000000  1.000000  1.000000
 FoFCou: FMM=F IPFlag=           0 FMFlag=      100000 FMFlg1=           0
         NFxFlg=           0 DoJE=T BraDBF=F KetDBF=T FulRan=T
         Omega=  0.000000  0.000000  1.000000  0.000000  0.000000 ICntrl=     500 IOpCl=  0
         NMat0=    1 NMatS0=    1 NMatT0=    0 NMatD0=    1 NMtDS0=    0 NMtDT0=    0
         I1Cent=           4 NGrid=           0.
 Petite list used in FoFCou.
 Initial guess orbital symmetries:
       Occupied  (A) (A) (A) (A) (A) (A) (A) (A) (A) (A) (A) (A)
                 (A) (A) (A) (A) (A) (A) (A) (A) (A) (A) (A) (A)
                 (A) (A) (A) (A) (A) (A) (A) (A) (A) (A) (A) (A)
                 (A) (A) (A)
       Virtual   (A) (A) (A) (A) (A) (A) (A) (A) (A) (A) (A) (A)
                 (A) (A) (A) (A) (A) (A) (A) (A) (A) (A) (A) (A)
                 (A) (A) (A) (A) (A) (A) (A) (A) (A) (A) (A) (A)
                 (A) (A) (A) (A) (A) (A) (A) (A) (A) (A) (A) (A)
                 (A) (A) (A) (A) (A) (A) (A) (A) (A) (A) (A) (A)
                 (A) (A) (A) (A) (A) (A) (A) (A) (A) (A) (A) (A)
                 (A) (A) (A) (A) (A) (A) (A) (A) (A) (A) (A) (A)
                 (A) (A) (A) (A) (A) (A) (A) (A) (A) (A) (A) (A)
                 (A) (A) (A) (A) (A) (A) (A) (A) (A) (A) (A) (A)
                 (A) (A) (A) (A) (A) (A) (A) (A) (A) (A) (A) (A)
                 (A) (A) (A) (A) (A) (A) (A) (A) (A) (A) (A) (A)
                 (A) (A) (A) (A)
 The electronic state of the initial guess is 1-A.
 Requested convergence on RMS density matrix=1.00D-08 within 600 cycles.
 Requested convergence on MAX density matrix=1.00D-06.
 Requested convergence on             energy=1.00D-06.
 No special actions if energy rises.
 Keep R1 ints in memory in canonical form, NReq=121771872.
 SCF Done:  E(RHF) =  -546.887349803     A.U. after   16 cycles
             Convg  =    0.8821D-08             -V/T =  2.0028

 **********************************************************************

            Population analysis using the SCF density.

 **********************************************************************

 Orbital symmetries:
       Occupied  (A) (A) (A) (A) (A) (A) (A) (A) (A) (A) (A) (A)
                 (A) (A) (A) (A) (A) (A) (A) (A) (A) (A) (A) (A)
                 (A) (A) (A) (A) (A) (A) (A) (A) (A) (A) (A) (A)
                 (A) (A) (A)
       Virtual   (A) (A) (A) (A) (A) (A) (A) (A) (A) (A) (A) (A)
                 (A) (A) (A) (A) (A) (A) (A) (A) (A) (A) (A) (A)
                 (A) (A) (A) (A) (A) (A) (A) (A) (A) (A) (A) (A)
                 (A) (A) (A) (A) (A) (A) (A) (A) (A) (A) (A) (A)
                 (A) (A) (A) (A) (A) (A) (A) (A) (A) (A) (A) (A)
                 (A) (A) (A) (A) (A) (A) (A) (A) (A) (A) (A) (A)
                 (A) (A) (A) (A) (A) (A) (A) (A) (A) (A) (A) (A)
                 (A) (A) (A) (A) (A) (A) (A) (A) (A) (A) (A) (A)
                 (A) (A) (A) (A) (A) (A) (A) (A) (A) (A) (A) (A)
                 (A) (A) (A) (A) (A) (A) (A) (A) (A) (A) (A) (A)
                 (A) (A) (A) (A) (A) (A) (A) (A) (A) (A) (A) (A)
                 (A) (A) (A) (A)
 The electronic state is 1-A.
 Alpha  occ. eigenvalues --  -20.62537 -20.62446 -20.58226 -15.87501 -11.35414
 Alpha  occ. eigenvalues --  -11.33446 -11.29543 -11.28824 -11.28379 -11.28238
 Alpha  occ. eigenvalues --  -11.27869  -1.62176  -1.41528  -1.40969  -1.21381
 Alpha  occ. eigenvalues --   -1.10646  -1.07471  -0.97971  -0.91001  -0.84733
 Alpha  occ. eigenvalues --   -0.82971  -0.78079  -0.73920  -0.73659  -0.71587
 Alpha  occ. eigenvalues --   -0.68656  -0.65846  -0.64303  -0.64091  -0.57328
 Alpha  occ. eigenvalues --   -0.57197  -0.54792  -0.52572  -0.50674  -0.50433
 Alpha  occ. eigenvalues --   -0.46650  -0.43920  -0.38712  -0.37571
 Alpha virt. eigenvalues --    0.03079   0.07501   0.13981   0.18996   0.21426
 Alpha virt. eigenvalues --    0.26904   0.28746   0.30146   0.30738   0.34574
 Alpha virt. eigenvalues --    0.35264   0.39620   0.41786   0.45407   0.47673
 Alpha virt. eigenvalues --    0.48860   0.50206   0.52827   0.60868   0.65250
 Alpha virt. eigenvalues --    0.68112   0.70101   0.70567   0.74197   0.75373
 Alpha virt. eigenvalues --    0.77635   0.78248   0.78790   0.80046   0.81303
 Alpha virt. eigenvalues --    0.82534   0.83687   0.86539   0.89253   0.90783
 Alpha virt. eigenvalues --    0.95287   0.95868   1.00136   1.02203   1.02968
 Alpha virt. eigenvalues --    1.04397   1.05589   1.07015   1.08024   1.09450
 Alpha virt. eigenvalues --    1.11565   1.13674   1.14998   1.17554   1.18871
 Alpha virt. eigenvalues --    1.21830   1.23673   1.25798   1.27906   1.28244
 Alpha virt. eigenvalues --    1.29630   1.33099   1.34062   1.38992   1.40748
 Alpha virt. eigenvalues --    1.41967   1.45581   1.46305   1.49449   1.50399
 Alpha virt. eigenvalues --    1.59863   1.61656   1.66510   1.67722   1.68982
 Alpha virt. eigenvalues --    1.70282   1.71228   1.73647   1.75705   1.81770
 Alpha virt. eigenvalues --    1.84022   1.89821   1.93209   1.98894   2.00795
 Alpha virt. eigenvalues --    2.02148   2.05302   2.08322   2.10404   2.12476
 Alpha virt. eigenvalues --    2.15930   2.17662   2.19720   2.21117   2.24593
 Alpha virt. eigenvalues --    2.30555   2.31566   2.32118   2.34296   2.35949
 Alpha virt. eigenvalues --    2.39805   2.42690   2.43912   2.47483   2.49422
 Alpha virt. eigenvalues --    2.55346   2.56673   2.59745   2.63594   2.69721
 Alpha virt. eigenvalues --    2.74858   2.81671   2.83153   2.90000   2.91261
 Alpha virt. eigenvalues --    2.93184   2.95592   2.98291   3.00232   3.06267
 Alpha virt. eigenvalues --    3.06919   3.15644   3.21388   3.22405   3.24576
 Alpha virt. eigenvalues --    3.30238   3.34968   3.41999   3.57968   3.77641
 Alpha virt. eigenvalues --    4.10725   4.24590   4.28904   4.32181   4.47332
 Alpha virt. eigenvalues --    4.50392   4.51327   4.63129   4.74629   4.78521
 Alpha virt. eigenvalues --    5.11332
     Molecular Orbital Coefficients:
                           1         2         3         4         5
                           O         O         O         O         O
     Eigenvalues --   -20.62537 -20.62446 -20.58226 -15.87501 -11.35414
   1 1   C  1S          0.00000   0.00000   0.00000  -0.00002  -0.00003
   2        2S          0.00004   0.00000   0.00002  -0.00009  -0.00019
   3        2PX        -0.00001   0.00001   0.00000  -0.00001   0.00003
   4        2PY         0.00000   0.00001   0.00000   0.00001   0.00005
   5        2PZ         0.00000   0.00000   0.00000  -0.00001  -0.00001
   6        3S         -0.00048   0.00008  -0.00023   0.00142   0.00292
   7        3PX         0.00006   0.00000   0.00011  -0.00134  -0.00169
   8        3PY        -0.00056  -0.00004  -0.00008   0.00065   0.00111
   9        3PZ         0.00006   0.00001   0.00000   0.00001   0.00000
  10        4XX        -0.00001   0.00000   0.00000  -0.00001  -0.00001
  11        4YY        -0.00004   0.00001   0.00000   0.00002   0.00004
  12        4ZZ         0.00001   0.00000   0.00001  -0.00005  -0.00006
  13        4XY         0.00000   0.00000   0.00000  -0.00006  -0.00001
  14        4XZ         0.00000   0.00000   0.00000   0.00000   0.00000
  15        4YZ         0.00001   0.00000   0.00000  -0.00001   0.00000
  16 2   C  1S          0.00000   0.00000   0.00000   0.00000   0.00002
  17        2S          0.00000   0.00002  -0.00001  -0.00001   0.00007
  18        2PX         0.00001   0.00000   0.00000  -0.00003  -0.00003
  19        2PY         0.00000   0.00000   0.00000  -0.00003   0.00000
  20        2PZ         0.00000   0.00000   0.00000   0.00001   0.00000
  21        3S          0.00006  -0.00011   0.00009  -0.00107  -0.00183
  22        3PX        -0.00014  -0.00005   0.00007  -0.00022  -0.00069
  23        3PY         0.00018  -0.00008   0.00008  -0.00030  -0.00110
  24        3PZ        -0.00002   0.00000  -0.00001   0.00000   0.00005
  25        4XX         0.00000   0.00000   0.00000   0.00000  -0.00001
  26        4YY         0.00000   0.00000   0.00000   0.00000   0.00001
  27        4ZZ         0.00000   0.00001   0.00000  -0.00002   0.00001
  28        4XY         0.00000   0.00000   0.00000   0.00000  -0.00001
  29        4XZ         0.00000   0.00000   0.00000   0.00000   0.00000
  30        4YZ         0.00000   0.00000   0.00000   0.00000   0.00000
  31 3   C  1S          0.00000   0.00000   0.00000  -0.00001  -0.00001
  32        2S          0.00001   0.00000   0.00001  -0.00004  -0.00014
  33        2PX         0.00000   0.00000   0.00000  -0.00002   0.00002
  34        2PY         0.00001  -0.00001   0.00000   0.00000   0.00000
  35        2PZ         0.00000   0.00000   0.00000   0.00000  -0.00001
  36        3S         -0.00012  -0.00005  -0.00019   0.00068   0.00270
  37        3PX        -0.00007   0.00001   0.00003   0.00037   0.00068
  38        3PY         0.00008  -0.00002  -0.00012   0.00020   0.00130
  39        3PZ         0.00000   0.00000   0.00001  -0.00002  -0.00006
  40        4XX         0.00000   0.00000   0.00000  -0.00001  -0.00001
  41        4YY         0.00000   0.00000   0.00000   0.00000   0.00002
  42        4ZZ         0.00000   0.00000   0.00001  -0.00002  -0.00004
  43        4XY         0.00000   0.00000   0.00000  -0.00001   0.00001
  44        4XZ         0.00000   0.00000   0.00000   0.00000   0.00000
  45        4YZ         0.00000   0.00000   0.00000   0.00000  -0.00001
  46 4   C  1S          0.00000   0.00000   0.00000   0.00000   0.00000
  47        2S          0.00001   0.00000   0.00000  -0.00001  -0.00012
  48        2PX         0.00001   0.00001   0.00001  -0.00005   0.00001
  49        2PY         0.00000   0.00000   0.00000   0.00001  -0.00008
  50        2PZ         0.00000   0.00000   0.00000   0.00000   0.00001
  51        3S          0.00007   0.00012   0.00009  -0.00106  -0.00055
  52        3PX         0.00002   0.00007  -0.00023  -0.00041   0.00032
  53        3PY         0.00009  -0.00012  -0.00012   0.00039   0.00263
  54        3PZ         0.00000   0.00001  -0.00001   0.00000  -0.00009
  55        4XX         0.00000   0.00000  -0.00003  -0.00002   0.00012
  56        4YY         0.00000   0.00000   0.00000   0.00001   0.00002
  57        4ZZ         0.00001   0.00000   0.00000  -0.00002  -0.00004
  58        4XY         0.00000   0.00000   0.00000   0.00001   0.00006
  59        4XZ         0.00000   0.00000   0.00000   0.00000   0.00001
  60        4YZ         0.00000   0.00000   0.00000   0.00000  -0.00001
  61 5   C  1S          0.00000   0.00000   0.00000  -0.00001   0.00546
  62        2S         -0.00001   0.00001   0.00001  -0.00005   0.00030
  63        2PX         0.00001  -0.00001   0.00001   0.00000  -0.00009
  64        2PY        -0.00001   0.00000  -0.00003   0.00005  -0.00001
  65        2PZ         0.00000   0.00000  -0.00001   0.00000   0.00004
  66        3S          0.00024  -0.00016  -0.00013   0.00141   0.00415
  67        3PX         0.00028  -0.00009  -0.00025  -0.00012   0.00312
  68        3PY         0.00008   0.00061  -0.00004  -0.00240  -0.00190
  69        3PZ        -0.00001  -0.00002   0.00004   0.00010  -0.00018
  70        4XX         0.00001  -0.00001   0.00001  -0.00003  -0.00026
  71        4YY         0.00001  -0.00001  -0.00003   0.00005  -0.00067
  72        4ZZ         0.00000   0.00000  -0.00001  -0.00003  -0.00016
  73        4XY        -0.00002   0.00002   0.00007  -0.00002  -0.00009
  74        4XZ         0.00000  -0.00001  -0.00001   0.00000   0.00001
  75        4YZ         0.00000   0.00001  -0.00001   0.00000   0.00006
  76 6   C  1S          0.00000   0.00000   0.00000   0.00002  -0.00005
  77        2S         -0.00001   0.00000   0.00000   0.00020   0.00012
  78        2PX        -0.00005  -0.00003  -0.00001   0.00015   0.00000
  79        2PY         0.00001  -0.00004   0.00002   0.00004  -0.00014
  80        2PZ         0.00001  -0.00001  -0.00001   0.00001   0.00003
  81        3S          0.00000   0.00001   0.00020  -0.00004  -0.00439
  82        3PX        -0.00035  -0.00069  -0.00016   0.00394   0.00299
  83        3PY        -0.00077   0.00004  -0.00008   0.00092   0.00036
  84        3PZ        -0.00002  -0.00002   0.00000   0.00004   0.00004
  85        4XX        -0.00010  -0.00001   0.00002   0.00007   0.00010
  86        4YY         0.00004  -0.00004   0.00001  -0.00005  -0.00004
  87        4ZZ        -0.00002  -0.00002   0.00000  -0.00006   0.00001
  88        4XY         0.00005  -0.00008  -0.00001   0.00007   0.00002
  89        4XZ         0.00002  -0.00002   0.00000   0.00001   0.00000
  90        4YZ         0.00001   0.00000   0.00000  -0.00001   0.00000
  91 7   H  1S          0.00002   0.00001   0.00000   0.00005   0.00006
  92        2S         -0.00028  -0.00003  -0.00004   0.00047   0.00056
  93 8   H  1S          0.00001   0.00000   0.00001   0.00000  -0.00005
  94        2S          0.00005  -0.00003   0.00002   0.00001  -0.00026
  95 9   H  1S          0.00000   0.00000   0.00001   0.00001  -0.00002
  96        2S         -0.00001   0.00000   0.00001   0.00011   0.00023
  97 10  H  1S          0.00000   0.00001   0.00002  -0.00001  -0.00018
  98        2S         -0.00003   0.00004  -0.00018  -0.00010  -0.00045
  99 11  C  1S          0.00000   0.00001  -0.00001  -0.00001   0.99575
 100        2S          0.00001   0.00004   0.00042  -0.00004   0.02671
 101        2PX         0.00000   0.00001   0.00009   0.00000  -0.00074
 102        2PY         0.00000   0.00000  -0.00007  -0.00003   0.00001
 103        2PZ         0.00000   0.00002  -0.00002   0.00000   0.00022
 104        3S         -0.00007  -0.00033  -0.00033   0.00123  -0.00602
 105        3PX        -0.00009   0.00007   0.00054  -0.00029  -0.00302
 106        3PY         0.00011   0.00031  -0.00048  -0.00061   0.00188
 107        3PZ         0.00000  -0.00015  -0.00009   0.00014   0.00054
 108        4XX         0.00001   0.00000  -0.00051   0.00000  -0.00127
 109        4YY         0.00000   0.00000  -0.00034   0.00002  -0.00140
 110        4ZZ         0.00001   0.00002  -0.00005  -0.00001  -0.00239
 111        4XY        -0.00001   0.00000   0.00042   0.00001  -0.00053
 112        4XZ         0.00000   0.00000   0.00012  -0.00001  -0.00035
 113        4YZ         0.00000   0.00000  -0.00008  -0.00001   0.00005
 114 12  N  1S          0.00003   0.00003   0.00000   0.99527   0.00002
 115        2S          0.00034   0.00036   0.00000   0.02425   0.00013
 116        2PX         0.00008   0.00002   0.00000   0.00037   0.00000
 117        2PY        -0.00009   0.00013   0.00000   0.00011  -0.00002
 118        2PZ        -0.00004   0.00005   0.00000   0.00001   0.00002
 119        3S          0.00012   0.00019   0.00011  -0.00367  -0.00159
 120        3PX        -0.00072  -0.00049  -0.00002   0.00182   0.00059
 121        3PY         0.00023  -0.00047   0.00001   0.00074  -0.00013
 122        3PZ         0.00012  -0.00012   0.00001   0.00013  -0.00013
 123        4XX        -0.00036  -0.00001   0.00001  -0.00303  -0.00002
 124        4YY        -0.00040  -0.00075   0.00000  -0.00267   0.00000
 125        4ZZ        -0.00012  -0.00015   0.00000  -0.00318   0.00005
 126        4XY         0.00046  -0.00008  -0.00001  -0.00016   0.00005
 127        4XZ         0.00024  -0.00004   0.00000  -0.00009   0.00002
 128        4YZ        -0.00023  -0.00036   0.00000   0.00032  -0.00002
 129 13  O  1S          0.99434   0.02826   0.00000  -0.00019   0.00001
 130        2S          0.02099   0.00053   0.00000   0.00023   0.00004
 131        2PX        -0.00128  -0.00007   0.00000  -0.00011  -0.00002
 132        2PY         0.00113   0.00000   0.00000   0.00011   0.00001
 133        2PZ         0.00061   0.00000   0.00000   0.00005   0.00000
 134        3S          0.00420   0.00037  -0.00001  -0.00010  -0.00018
 135        3PX         0.00014  -0.00014   0.00000   0.00002   0.00001
 136        3PY        -0.00010   0.00010  -0.00001  -0.00024   0.00002
 137        3PZ        -0.00003   0.00005  -0.00001  -0.00008   0.00003
 138        4XX        -0.00370   0.00002   0.00000  -0.00011   0.00003
 139        4YY        -0.00375  -0.00021   0.00000  -0.00010   0.00003
 140        4ZZ        -0.00395  -0.00022   0.00000   0.00011   0.00003
 141        4XY        -0.00006  -0.00005   0.00000   0.00014  -0.00003
 142        4XZ        -0.00006  -0.00005   0.00000   0.00008  -0.00002
 143        4YZ         0.00014   0.00001   0.00000  -0.00015   0.00001
 144 14  O  1S         -0.02828   0.99433   0.00000  -0.00018  -0.00005
 145        2S         -0.00067   0.02098   0.00003   0.00026  -0.00020
 146        2PX        -0.00003  -0.00036  -0.00001  -0.00002   0.00010
 147        2PY         0.00006  -0.00161   0.00000  -0.00015  -0.00002
 148        2PZ         0.00003  -0.00068   0.00000  -0.00006   0.00001
 149        3S          0.00012   0.00418  -0.00011  -0.00034   0.00096
 150        3PX        -0.00005   0.00004   0.00004  -0.00010  -0.00043
 151        3PY        -0.00016   0.00021   0.00001   0.00028  -0.00017
 152        3PZ        -0.00006   0.00004   0.00002   0.00013  -0.00009
 153        4XX         0.00011  -0.00377   0.00001   0.00003  -0.00009
 154        4YY         0.00011  -0.00373   0.00002  -0.00021  -0.00016
 155        4ZZ         0.00001  -0.00397   0.00002   0.00011  -0.00020
 156        4XY         0.00014   0.00004   0.00000  -0.00005   0.00000
 157        4XZ         0.00005   0.00000  -0.00001   0.00000   0.00005
 158        4YZ         0.00004   0.00014   0.00000  -0.00019   0.00003
 159 15  O  1S          0.00000   0.00001   0.99468   0.00000  -0.00030
 160        2S          0.00002   0.00000   0.02094   0.00000   0.00068
 161        2PX         0.00000   0.00000   0.00120  -0.00001   0.00023
 162        2PY         0.00000   0.00000  -0.00100   0.00000  -0.00018
 163        2PZ         0.00000  -0.00001  -0.00024   0.00000  -0.00008
 164        3S         -0.00013  -0.00001   0.00479  -0.00012  -0.00350
 165        3PX        -0.00003  -0.00001   0.00005   0.00001  -0.00142
 166        3PY         0.00001  -0.00004  -0.00003   0.00009   0.00115
 167        3PZ         0.00001   0.00005  -0.00003  -0.00001   0.00037
 168        4XX         0.00001   0.00000  -0.00374   0.00000   0.00012
 169        4YY         0.00001   0.00001  -0.00380   0.00000   0.00012
 170        4ZZ         0.00001   0.00000  -0.00419  -0.00002   0.00041
 171        4XY         0.00000  -0.00001  -0.00020   0.00001   0.00011
 172        4XZ         0.00000   0.00001  -0.00015  -0.00001   0.00009
 173        4YZ         0.00000   0.00000   0.00000  -0.00001   0.00000
 174 16  H  1S          0.00001   0.00003  -0.00004  -0.00002   0.00005
 175        2S          0.00001  -0.00025  -0.00012   0.00014   0.00235
                           6         7         8         9        10
                           O         O         O         O         O
     Eigenvalues --   -11.33446 -11.29543 -11.28824 -11.28379 -11.28238
   1 1   C  1S          0.01281  -0.00212   0.98709  -0.12017   0.04894
   2        2S         -0.00002  -0.00013   0.02765  -0.00363   0.00152
   3        2PX         0.00003   0.00002  -0.00024   0.00023  -0.00010
   4        2PY        -0.00013   0.00002   0.00046  -0.00003   0.00000
   5        2PZ        -0.00002   0.00000   0.00001  -0.00001   0.00000
   6        3S          0.00690  -0.00100  -0.01458   0.00708  -0.00698
   7        3PX        -0.00279   0.00048   0.00230  -0.00231   0.00245
   8        3PY         0.00276  -0.00029  -0.00225   0.00077  -0.00162
   9        3PZ         0.00003   0.00004   0.00004   0.00001   0.00003
  10        4XX        -0.00033   0.00006  -0.00167  -0.00015   0.00025
  11        4YY        -0.00037   0.00015  -0.00163  -0.00010   0.00011
  12        4ZZ        -0.00020   0.00000  -0.00239   0.00016  -0.00002
  13        4XY        -0.00015  -0.00001   0.00015  -0.00013   0.00007
  14        4XZ         0.00000   0.00000  -0.00001   0.00001  -0.00001
  15        4YZ         0.00001   0.00000  -0.00003   0.00001  -0.00001
  16 2   C  1S          0.00012  -0.00089   0.12854   0.87274  -0.46131
  17        2S          0.00002  -0.00012   0.00332   0.02433  -0.01317
  18        2PX        -0.00002  -0.00002  -0.00013   0.00018   0.00003
  19        2PY        -0.00003  -0.00003  -0.00008   0.00024  -0.00030
  20        2PZ         0.00001   0.00001   0.00001  -0.00001   0.00001
  21        3S         -0.00385   0.00134   0.00469  -0.01166   0.01348
  22        3PX        -0.00059   0.00010   0.00153  -0.00108  -0.00031
  23        3PY        -0.00174   0.00082   0.00219  -0.00204   0.00436
  24        3PZ         0.00004  -0.00006  -0.00011   0.00009  -0.00016
  25        4XX         0.00009  -0.00001  -0.00071  -0.00146   0.00025
  26        4YY         0.00008  -0.00002  -0.00052  -0.00166   0.00053
  27        4ZZ         0.00002  -0.00005  -0.00045  -0.00211   0.00095
  28        4XY         0.00006  -0.00001  -0.00005   0.00001   0.00012
  29        4XZ        -0.00001   0.00000   0.00001  -0.00001   0.00001
  30        4YZ         0.00000   0.00000   0.00000  -0.00002   0.00002
  31 3   C  1S         -0.00024   0.00139   0.01296   0.46024   0.86890
  32        2S         -0.00022   0.00001   0.00033   0.01261   0.02440
  33        2PX        -0.00004   0.00000  -0.00004   0.00000   0.00034
  34        2PY        -0.00001  -0.00001   0.00002   0.00010   0.00004
  35        2PZ         0.00000   0.00000   0.00000  -0.00001  -0.00001
  36        3S          0.00314  -0.00167  -0.00217  -0.00056  -0.01635
  37        3PX         0.00176  -0.00087  -0.00097   0.00158  -0.00422
  38        3PY         0.00079  -0.00030  -0.00056  -0.00051  -0.00071
  39        3PZ        -0.00005   0.00004   0.00004   0.00000   0.00012
  40        4XX        -0.00001   0.00005   0.00005  -0.00116  -0.00138
  41        4YY         0.00000   0.00009  -0.00003  -0.00111  -0.00120
  42        4ZZ        -0.00009   0.00001  -0.00003  -0.00123  -0.00200
  43        4XY        -0.00001   0.00004  -0.00002   0.00007  -0.00016
  44        4XZ         0.00000   0.00000   0.00000   0.00000  -0.00001
  45        4YZ        -0.00001   0.00000   0.00000  -0.00001  -0.00004
  46 4   C  1S          0.00011   0.03468  -0.00018   0.05544   0.14662
  47        2S          0.00001   0.00080  -0.00014   0.00144   0.00381
  48        2PX        -0.00004  -0.00016  -0.00004   0.00003   0.00006
  49        2PY         0.00000  -0.00002   0.00002   0.00009   0.00013
  50        2PZ        -0.00001   0.00000   0.00000   0.00000  -0.00001
  51        3S         -0.00355   0.00454   0.00163  -0.00044   0.00588
  52        3PX        -0.00151   0.00198   0.00072  -0.00067   0.00167
  53        3PY         0.00150  -0.00029  -0.00099  -0.00015  -0.00248
  54        3PZ        -0.00006  -0.00005   0.00003   0.00001   0.00010
  55        4XX         0.00011  -0.00051  -0.00003  -0.00020  -0.00053
  56        4YY         0.00005  -0.00039   0.00000  -0.00019  -0.00070
  57        4ZZ         0.00002  -0.00019  -0.00006  -0.00017  -0.00050
  58        4XY         0.00001  -0.00010   0.00000  -0.00005  -0.00004
  59        4XZ         0.00000   0.00000   0.00000   0.00000   0.00001
  60        4YZ         0.00000   0.00002   0.00000   0.00000   0.00001
  61 5   C  1S          0.01414   0.99495   0.00206  -0.00209  -0.00667
  62        2S          0.00004   0.02782   0.00006  -0.00016  -0.00016
  63        2PX        -0.00008   0.00023   0.00003   0.00000   0.00000
  64        2PY         0.00020  -0.00021   0.00002   0.00006   0.00000
  65        2PZ         0.00000  -0.00010   0.00000   0.00000   0.00000
  66        3S          0.00786  -0.01515  -0.00263   0.00094  -0.00214
  67        3PX         0.00109  -0.00042  -0.00054  -0.00027   0.00124
  68        3PY        -0.00525   0.00097   0.00122  -0.00099   0.00172
  69        3PZ         0.00032   0.00019  -0.00003   0.00005  -0.00010
  70        4XX        -0.00044  -0.00148   0.00008   0.00000   0.00002
  71        4YY        -0.00029  -0.00155   0.00009  -0.00002   0.00003
  72        4ZZ        -0.00020  -0.00226   0.00001  -0.00004   0.00004
  73        4XY         0.00006  -0.00009  -0.00003   0.00003   0.00000
  74        4XZ         0.00000   0.00001   0.00000   0.00000   0.00000
  75        4YZ         0.00001  -0.00006   0.00000   0.00000   0.00000
  76 6   C  1S          0.99551  -0.01465  -0.01332   0.00165  -0.00038
  77        2S          0.02751  -0.00053  -0.00061   0.00000  -0.00014
  78        2PX         0.00078   0.00018   0.00006   0.00003   0.00003
  79        2PY         0.00032  -0.00015   0.00019  -0.00004   0.00005
  80        2PZ         0.00006   0.00001  -0.00001   0.00000   0.00000
  81        3S         -0.01425   0.00584   0.00724  -0.00263   0.00306
  82        3PX         0.00648  -0.00126  -0.00189   0.00039  -0.00159
  83        3PY         0.00084   0.00150  -0.00169   0.00093  -0.00192
  84        3PZ        -0.00010  -0.00014   0.00000  -0.00001   0.00003
  85        4XX        -0.00144  -0.00047  -0.00028   0.00008  -0.00006
  86        4YY        -0.00146  -0.00043  -0.00056   0.00017  -0.00008
  87        4ZZ        -0.00222  -0.00010  -0.00013   0.00001  -0.00006
  88        4XY         0.00000   0.00020  -0.00001   0.00003  -0.00002
  89        4XZ         0.00004   0.00001  -0.00001   0.00000   0.00000
  90        4YZ        -0.00003   0.00001   0.00001  -0.00001   0.00000
  91 7   H  1S          0.00009  -0.00001  -0.00021   0.00001  -0.00004
  92        2S          0.00088  -0.00005   0.00110   0.00011  -0.00035
  93 8   H  1S         -0.00003   0.00003  -0.00001  -0.00020   0.00011
  94        2S         -0.00024   0.00021   0.00061   0.00114  -0.00009
  95 9   H  1S          0.00005  -0.00003  -0.00003  -0.00009  -0.00021
  96        2S          0.00049  -0.00013  -0.00014   0.00101   0.00080
  97 10  H  1S         -0.00005  -0.00001   0.00004  -0.00005  -0.00001
  98        2S         -0.00043   0.00023   0.00034  -0.00002   0.00063
  99 11  C  1S         -0.00001  -0.00580  -0.00003   0.00000   0.00002
 100        2S         -0.00013  -0.00004  -0.00005  -0.00003  -0.00005
 101        2PX         0.00000   0.00005   0.00000   0.00000   0.00002
 102        2PY        -0.00002   0.00008   0.00000  -0.00002   0.00001
 103        2PZ         0.00002   0.00000   0.00000   0.00000  -0.00001
 104        3S          0.00142   0.00334   0.00001   0.00046  -0.00056
 105        3PX        -0.00013  -0.00019   0.00022  -0.00006  -0.00028
 106        3PY        -0.00083  -0.00132  -0.00014  -0.00021   0.00020
 107        3PZ         0.00006   0.00007  -0.00002   0.00005  -0.00001
 108        4XX         0.00002  -0.00022  -0.00002   0.00001  -0.00001
 109        4YY         0.00007  -0.00062  -0.00001   0.00002   0.00000
 110        4ZZ        -0.00003  -0.00012  -0.00002   0.00000  -0.00002
 111        4XY         0.00000  -0.00006  -0.00002   0.00001   0.00004
 112        4XZ        -0.00001   0.00001   0.00000   0.00000   0.00000
 113        4YZ        -0.00002   0.00006   0.00000   0.00000   0.00001
 114 12  N  1S         -0.00012   0.00003   0.00001  -0.00002  -0.00001
 115        2S          0.00065   0.00001  -0.00008  -0.00004  -0.00005
 116        2PX        -0.00020   0.00002  -0.00001   0.00000   0.00000
 117        2PY        -0.00007  -0.00002   0.00003   0.00000  -0.00001
 118        2PZ        -0.00002  -0.00001   0.00000   0.00000   0.00000
 119        3S         -0.00170  -0.00098   0.00004   0.00021   0.00073
 120        3PX         0.00270   0.00043   0.00000  -0.00016  -0.00028
 121        3PY         0.00146   0.00003   0.00034  -0.00036   0.00033
 122        3PZ         0.00033   0.00003   0.00021  -0.00009   0.00005
 123        4XX        -0.00070   0.00011   0.00006  -0.00003   0.00000
 124        4YY        -0.00016   0.00007   0.00009  -0.00004   0.00000
 125        4ZZ         0.00020   0.00001  -0.00002  -0.00003  -0.00002
 126        4XY        -0.00023   0.00002   0.00008   0.00000  -0.00001
 127        4XZ         0.00002   0.00001   0.00002  -0.00001   0.00001
 128        4YZ        -0.00014  -0.00002  -0.00001   0.00000   0.00001
 129 13  O  1S          0.00003   0.00000  -0.00002  -0.00001   0.00000
 130        2S          0.00001   0.00000  -0.00008  -0.00002   0.00001
 131        2PX         0.00004  -0.00001   0.00003   0.00001  -0.00001
 132        2PY         0.00006   0.00000   0.00001   0.00000  -0.00001
 133        2PZ         0.00005  -0.00001   0.00000   0.00000   0.00000
 134        3S         -0.00039   0.00008   0.00043  -0.00001   0.00008
 135        3PX        -0.00053  -0.00008  -0.00022   0.00002   0.00000
 136        3PY        -0.00039  -0.00004   0.00007  -0.00002   0.00003
 137        3PZ        -0.00017   0.00002   0.00000   0.00000   0.00001
 138        4XX         0.00030   0.00002   0.00000  -0.00002   0.00000
 139        4YY        -0.00004  -0.00002  -0.00007   0.00000   0.00000
 140        4ZZ         0.00001   0.00000  -0.00008  -0.00003   0.00002
 141        4XY        -0.00005   0.00000  -0.00001   0.00001  -0.00001
 142        4XZ        -0.00005  -0.00001  -0.00001   0.00000   0.00000
 143        4YZ        -0.00001  -0.00002   0.00000   0.00001   0.00000
 144 14  O  1S          0.00004  -0.00001   0.00001  -0.00001   0.00000
 145        2S          0.00007  -0.00005   0.00005  -0.00003   0.00002
 146        2PX         0.00008   0.00003  -0.00001   0.00000   0.00000
 147        2PY        -0.00002   0.00001   0.00000   0.00000   0.00000
 148        2PZ        -0.00005   0.00000   0.00001   0.00000   0.00000
 149        3S         -0.00114   0.00024  -0.00036   0.00026  -0.00025
 150        3PX        -0.00059  -0.00012   0.00000   0.00002   0.00001
 151        3PY         0.00026  -0.00008   0.00017  -0.00010   0.00009
 152        3PZ         0.00026  -0.00002   0.00002  -0.00005   0.00007
 153        4XX         0.00019  -0.00003   0.00005  -0.00002   0.00002
 154        4YY         0.00012  -0.00004  -0.00001   0.00000   0.00000
 155        4ZZ         0.00004  -0.00006   0.00004  -0.00002   0.00000
 156        4XY         0.00018   0.00003   0.00001   0.00000  -0.00001
 157        4XZ         0.00005   0.00001   0.00001   0.00000   0.00000
 158        4YZ         0.00003   0.00000  -0.00003   0.00001  -0.00001
 159 15  O  1S         -0.00002   0.00002  -0.00001   0.00000  -0.00001
 160        2S         -0.00010   0.00001  -0.00002  -0.00001  -0.00003
 161        2PX        -0.00002   0.00002   0.00000   0.00000   0.00001
 162        2PY         0.00001   0.00000   0.00000   0.00000   0.00002
 163        2PZ         0.00000  -0.00003   0.00000   0.00000   0.00000
 164        3S          0.00041  -0.00044   0.00017  -0.00001   0.00003
 165        3PX         0.00010   0.00003   0.00003   0.00000   0.00001
 166        3PY        -0.00007   0.00019   0.00001   0.00001  -0.00008
 167        3PZ         0.00000   0.00005  -0.00002  -0.00001   0.00001
 168        4XX        -0.00007   0.00011  -0.00001  -0.00001  -0.00001
 169        4YY        -0.00004   0.00009  -0.00002   0.00000   0.00000
 170        4ZZ        -0.00009  -0.00001  -0.00001  -0.00001  -0.00004
 171        4XY        -0.00001  -0.00001   0.00000   0.00000  -0.00001
 172        4XZ         0.00000  -0.00004   0.00000   0.00000   0.00000
 173        4YZ        -0.00001  -0.00002   0.00000   0.00000   0.00000
 174 16  H  1S         -0.00005  -0.00010  -0.00002  -0.00001   0.00003
 175        2S          0.00012  -0.00009  -0.00006   0.00003   0.00012
                          11        12        13        14        15
                           O         O         O         O         O
     Eigenvalues --   -11.27869  -1.62176  -1.41528  -1.40969  -1.21381
   1 1   C  1S         -0.00032  -0.00439   0.00377  -0.00186  -0.09166
   2        2S         -0.00016   0.01109  -0.00690   0.00488   0.17599
   3        2PX         0.00003   0.00442  -0.00448   0.00037  -0.03344
   4        2PY        -0.00003   0.00657  -0.00320   0.00148   0.05264
   5        2PZ         0.00000  -0.00031   0.00108  -0.00019  -0.00049
   6        3S          0.00262  -0.01799  -0.00412  -0.01998   0.09742
   7        3PX        -0.00171   0.01929   0.01090   0.00379   0.00696
   8        3PY         0.00081  -0.01412   0.00621  -0.01210  -0.00002
   9        3PZ         0.00001   0.00098  -0.00020   0.00011   0.00053
  10        4XX        -0.00004   0.00061  -0.00067   0.00018   0.00547
  11        4YY        -0.00004   0.00067  -0.00063  -0.00016   0.00858
  12        4ZZ        -0.00007   0.00046   0.00033   0.00001  -0.00822
  13        4XY        -0.00001   0.00182   0.00003   0.00001   0.00177
  14        4XZ         0.00000  -0.00011   0.00008  -0.00001  -0.00019
  15        4YZ         0.00000  -0.00001   0.00025  -0.00005  -0.00058
  16 2   C  1S          0.01970  -0.00030   0.00024  -0.00097  -0.07572
  17        2S          0.00059   0.00208  -0.00115   0.00151   0.14409
  18        2PX         0.00000   0.00110  -0.00059   0.00044   0.01637
  19        2PY         0.00001   0.00109  -0.00006   0.00084   0.05155
  20        2PZ         0.00000  -0.00008   0.00005  -0.00004  -0.00208
  21        3S         -0.00439   0.01034   0.00829   0.00731   0.09659
  22        3PX        -0.00027   0.00037   0.00761  -0.00079   0.00346
  23        3PY        -0.00199   0.00108   0.00173   0.00566   0.00986
  24        3PZ         0.00007  -0.00024  -0.00010  -0.00030  -0.00046
  25        4XX         0.00011  -0.00006   0.00002   0.00018   0.00722
  26        4YY         0.00013   0.00009  -0.00004   0.00002   0.00467
  27        4ZZ         0.00000   0.00044  -0.00014  -0.00014  -0.00687
  28        4XY        -0.00007  -0.00003   0.00007   0.00000   0.00047
  29        4XZ         0.00000  -0.00002   0.00001   0.00001  -0.00028
  30        4YZ        -0.00001   0.00000   0.00000  -0.00002  -0.00051
  31 3   C  1S         -0.15625  -0.00008  -0.00029  -0.00155  -0.07134
  32        2S         -0.00465   0.00112   0.00070   0.00325   0.13658
  33        2PX        -0.00014   0.00063   0.00003   0.00084   0.04768
  34        2PY        -0.00019   0.00012   0.00061   0.00155   0.01778
  35        2PZ         0.00001  -0.00005  -0.00007  -0.00008  -0.00186
  36        3S          0.00949  -0.00835  -0.00303  -0.00613   0.07434
  37        3PX         0.00287  -0.00352  -0.00010  -0.00329   0.00154
  38        3PY         0.00239  -0.00246  -0.00525  -0.00058  -0.00093
  39        3PZ        -0.00016   0.00020   0.00011   0.00042  -0.00009
  40        4XX        -0.00001   0.00014   0.00000  -0.00002   0.00475
  41        4YY        -0.00032   0.00000  -0.00001   0.00007   0.00613
  42        4ZZ         0.00022   0.00024  -0.00001  -0.00012  -0.00641
  43        4XY         0.00003   0.00007  -0.00001   0.00011  -0.00072
  44        4XZ         0.00000   0.00000  -0.00001   0.00000  -0.00023
  45        4YZ         0.00003  -0.00001   0.00000   0.00003  -0.00064
  46 4   C  1S          0.98265  -0.00031  -0.00209  -0.00787  -0.07671
  47        2S          0.02755   0.00190   0.00406   0.01412   0.14561
  48        2PX         0.00040   0.00157   0.00198   0.00645   0.04730
  49        2PY        -0.00028  -0.00014   0.00178   0.00676  -0.02660
  50        2PZ        -0.00001  -0.00003  -0.00004  -0.00016   0.00036
  51        3S         -0.01680   0.01186   0.00165   0.01176   0.10019
  52        3PX        -0.00308   0.00317  -0.00213   0.00494   0.00930
  53        3PY         0.00291  -0.00643  -0.00667  -0.00381  -0.00807
  54        3PZ        -0.00010   0.00060   0.00041  -0.00078   0.00030
  55        4XX        -0.00159   0.00020   0.00022   0.00103   0.00667
  56        4YY        -0.00142  -0.00015   0.00028   0.00109   0.00560
  57        4ZZ        -0.00230   0.00038  -0.00014  -0.00083  -0.00709
  58        4XY         0.00021  -0.00031   0.00013   0.00064   0.00158
  59        4XZ        -0.00001   0.00007   0.00001  -0.00011  -0.00023
  60        4YZ        -0.00005   0.00002  -0.00001  -0.00008  -0.00076
  61 5   C  1S         -0.03455  -0.00403  -0.00791  -0.01951  -0.09519
  62        2S         -0.00121   0.00920   0.01503   0.03688   0.18369
  63        2PX         0.00016   0.00676   0.00382  -0.00616   0.00795
  64        2PY         0.00013  -0.00307   0.00561   0.02522  -0.05714
  65        2PZ        -0.00001   0.00058   0.00062  -0.00191   0.00102
  66        3S          0.00810  -0.01780   0.00098   0.01530   0.09966
  67        3PX        -0.00107  -0.00184  -0.01068  -0.00697   0.00462
  68        3PY        -0.00383   0.04498   0.00922   0.02566   0.00779
  69        3PZ         0.00023  -0.00299  -0.00005   0.00090  -0.00219
  70        4XX        -0.00051   0.00189   0.00061  -0.00059   0.00848
  71        4YY        -0.00028  -0.00078   0.00249   0.00804   0.00471
  72        4ZZ        -0.00008   0.00022  -0.00064  -0.00178  -0.00798
  73        4XY        -0.00007  -0.00014  -0.00021  -0.00024  -0.00223
  74        4XZ         0.00001   0.00013   0.00026   0.00015  -0.00006
  75        4YZ         0.00002  -0.00017  -0.00034  -0.00081  -0.00113
  76 6   C  1S          0.00041  -0.02526  -0.00076  -0.00406  -0.11741
  77        2S          0.00005   0.04838   0.00157   0.00787   0.22986
  78        2PX        -0.00001   0.04054  -0.00616  -0.00229  -0.03087
  79        2PY         0.00002   0.01271   0.01809   0.00095  -0.01214
  80        2PZ         0.00000   0.00121   0.00604  -0.00171   0.00139
  81        3S         -0.00409   0.00327   0.00426   0.02533   0.13262
  82        3PX         0.00210  -0.08150  -0.01210  -0.01652  -0.03589
  83        3PY        -0.00041  -0.01985   0.01476  -0.01834  -0.00841
  84        3PZ        -0.00003  -0.00096   0.00021   0.00031   0.00004
  85        4XX         0.00014   0.00971  -0.00247   0.00018   0.00719
  86        4YY         0.00008  -0.00066   0.00228   0.00035   0.00924
  87        4ZZ         0.00004  -0.00231   0.00008  -0.00023  -0.01047
  88        4XY        -0.00003   0.00395   0.00369  -0.00128  -0.00145
  89        4XZ         0.00000   0.00050   0.00195  -0.00040   0.00052
  90        4YZ        -0.00001  -0.00039   0.00077  -0.00023  -0.00097
  91 7   H  1S          0.00007   0.00213  -0.00447   0.00114   0.03353
  92        2S          0.00047  -0.00829  -0.00184  -0.00248  -0.00329
  93 8   H  1S         -0.00003   0.00000  -0.00023   0.00044   0.02670
  94        2S         -0.00026  -0.00168   0.00061   0.00132   0.00243
  95 9   H  1S          0.00005   0.00004   0.00004   0.00039   0.02485
  96        2S          0.00030  -0.00133  -0.00044  -0.00073   0.00039
  97 10  H  1S         -0.00022   0.00023   0.00152   0.00557   0.02663
  98        2S          0.00092   0.00090   0.00151   0.00479   0.00171
  99 11  C  1S          0.00018  -0.00128  -0.02602  -0.11101  -0.01140
 100        2S         -0.00017   0.00394   0.05073   0.21229   0.02439
 101        2PX         0.00002   0.00107  -0.02636  -0.13673   0.01659
 102        2PY        -0.00002  -0.00090   0.01913   0.09924  -0.05075
 103        2PZ         0.00000   0.00024   0.00648   0.02756  -0.00061
 104        3S          0.00094  -0.02274   0.01525   0.05003   0.00858
 105        3PX        -0.00024   0.00574   0.00419   0.02844   0.00047
 106        3PY        -0.00047   0.01327   0.00223  -0.00457  -0.00137
 107        3PZ         0.00010  -0.00240  -0.00149  -0.00788  -0.00045
 108        4XX         0.00007   0.00050   0.00388   0.01335  -0.00226
 109        4YY         0.00010   0.00013   0.00069   0.00072   0.00616
 110        4ZZ        -0.00003   0.00023  -0.00322  -0.01529  -0.00063
 111        4XY         0.00004  -0.00053  -0.00605  -0.02448   0.00370
 112        4XZ         0.00000   0.00013  -0.00153  -0.00734   0.00006
 113        4YZ        -0.00002   0.00005   0.00105   0.00508  -0.00167
 114 12  N  1S         -0.00001  -0.15879  -0.00006   0.00081  -0.01728
 115        2S         -0.00001   0.34846  -0.00032  -0.00308   0.03621
 116        2PX         0.00001   0.08083  -0.08635   0.01555  -0.11435
 117        2PY        -0.00001   0.02316   0.25878  -0.05830  -0.03561
 118        2PZ         0.00000   0.00327   0.11851  -0.02688  -0.00378
 119        3S         -0.00026   0.21403   0.00436   0.01152   0.07426
 120        3PX        -0.00023  -0.05616  -0.00726  -0.00383  -0.05004
 121        3PY         0.00036  -0.02042   0.01681  -0.00382  -0.01715
 122        3PZ         0.00009  -0.00347   0.00842  -0.00198  -0.00240
 123        4XX        -0.00002   0.00141  -0.01483   0.00382   0.00834
 124        4YY        -0.00003   0.01593   0.01398  -0.00346  -0.00504
 125        4ZZ        -0.00002  -0.01118   0.00091  -0.00046  -0.00284
 126        4XY        -0.00001  -0.00699   0.02343  -0.00545   0.00554
 127        4XZ         0.00001  -0.00496   0.01171  -0.00266   0.00120
 128        4YZ         0.00000   0.01716   0.00507  -0.00121  -0.00243
 129 13  O  1S         -0.00001  -0.10925   0.13996  -0.02986   0.02690
 130        2S         -0.00004   0.24444  -0.31336   0.06674  -0.06288
 131        2PX         0.00000  -0.07512   0.07599  -0.01626  -0.01172
 132        2PY         0.00000   0.07418  -0.04479   0.00884  -0.01907
 133        2PZ         0.00000   0.03882  -0.02632   0.00528  -0.00620
 134        3S          0.00033   0.19029  -0.29507   0.06317  -0.06332
 135        3PX        -0.00007  -0.02790   0.04414  -0.00884   0.00164
 136        3PY         0.00009   0.03393  -0.02437   0.00466  -0.00659
 137        3PZ         0.00007   0.01764  -0.01553   0.00300  -0.00230
 138        4XX        -0.00002   0.00658  -0.01136   0.00227   0.00089
 139        4YY        -0.00001   0.00981  -0.00145   0.00009  -0.00322
 140        4ZZ        -0.00002   0.00039   0.00217  -0.00056  -0.00112
 141        4XY        -0.00001  -0.01403   0.00954  -0.00176   0.00125
 142        4XZ        -0.00001  -0.00722   0.00601  -0.00113   0.00025
 143        4YZ         0.00001   0.00749  -0.00341   0.00060  -0.00139
 144 14  O  1S          0.00000  -0.10814  -0.14081   0.03281   0.02665
 145        2S         -0.00001   0.24118   0.31489  -0.07209  -0.06217
 146        2PX         0.00001  -0.01672  -0.03586   0.00645  -0.02058
 147        2PY         0.00000  -0.10086  -0.07806   0.01915   0.00846
 148        2PZ         0.00000  -0.04276  -0.03180   0.00733   0.00531
 149        3S         -0.00010   0.19290   0.29787  -0.07329  -0.06166
 150        3PX         0.00001  -0.00311  -0.02187   0.00680  -0.00219
 151        3PY         0.00002  -0.04384  -0.04353   0.01104   0.00545
 152        3PZ         0.00002  -0.02021  -0.01945   0.00530   0.00225
 153        4XX         0.00000  -0.00413   0.00007   0.00045   0.00047
 154        4YY         0.00000   0.01932   0.01170  -0.00226  -0.00259
 155        4ZZ        -0.00002   0.00105  -0.00134   0.00101  -0.00102
 156        4XY        -0.00001   0.00237   0.00795  -0.00176   0.00183
 157        4XZ         0.00000   0.00150   0.00362  -0.00099   0.00074
 158        4YZ         0.00001   0.01109   0.00726  -0.00186  -0.00125
 159 15  O  1S          0.00000  -0.00038  -0.04076  -0.19061   0.02115
 160        2S          0.00000   0.00119   0.09137   0.42036  -0.04687
 161        2PX        -0.00001   0.00043   0.02225   0.10224  -0.00900
 162        2PY         0.00001  -0.00023  -0.01851  -0.08530  -0.00143
 163        2PZ         0.00000  -0.00002  -0.00450  -0.02112   0.00234
 164        3S         -0.00011   0.00156   0.07630   0.38699  -0.04894
 165        3PX         0.00007  -0.00078   0.00638   0.03812  -0.00348
 166        3PY         0.00005  -0.00153  -0.00673  -0.03718   0.00024
 167        3PZ         0.00001   0.00020  -0.00115  -0.00822   0.00086
 168        4XX         0.00000  -0.00002   0.00225   0.00894  -0.00121
 169        4YY         0.00001   0.00018   0.00167   0.00588   0.00012
 170        4ZZ        -0.00002   0.00039   0.00016  -0.00225   0.00030
 171        4XY        -0.00001  -0.00003  -0.00218  -0.01166   0.00054
 172        4XZ         0.00000   0.00016  -0.00042  -0.00268   0.00046
 173        4YZ        -0.00001   0.00004   0.00045   0.00259  -0.00007
 174 16  H  1S          0.00001   0.00199   0.00950   0.02565   0.00616
 175        2S          0.00015  -0.00267  -0.00265  -0.01163  -0.00024
                          16        17        18        19        20
                           O         O         O         O         O
     Eigenvalues --    -1.10646  -1.07471  -0.97971  -0.91001  -0.84733
   1 1   C  1S          0.00946   0.11032   0.08190   0.05688   0.04739
   2        2S         -0.02010  -0.21390  -0.15925  -0.11291  -0.09789
   3        2PX        -0.07133   0.04425   0.03557  -0.07892   0.02208
   4        2PY        -0.06697   0.00962   0.00824  -0.08896   0.13765
   5        2PZ         0.00246  -0.00225   0.00019   0.00262  -0.00729
   6        3S         -0.00918  -0.15840  -0.13326  -0.09064  -0.07134
   7        3PX        -0.01629   0.00389   0.00341  -0.02776  -0.02557
   8        3PY         0.00096   0.00999   0.00129  -0.00673   0.06690
   9        3PZ        -0.00064  -0.00134   0.00088   0.00057  -0.00524
  10        4XX         0.00734  -0.01179  -0.00544   0.00393  -0.01170
  11        4YY        -0.00866  -0.00385  -0.00482  -0.01087   0.00544
  12        4ZZ         0.00039   0.00892   0.00665   0.00456   0.00274
  13        4XY        -0.00024  -0.00240   0.00305   0.00461  -0.00096
  14        4XZ        -0.00029   0.00025   0.00018  -0.00034  -0.00013
  15        4YZ         0.00017   0.00046   0.00074   0.00040  -0.00014
  16 2   C  1S         -0.08428   0.09891   0.01417  -0.08970   0.02873
  17        2S          0.16121  -0.19136  -0.02693   0.17867  -0.05792
  18        2PX        -0.04790  -0.05699  -0.12600  -0.08189  -0.13351
  19        2PY         0.04403  -0.01887   0.01729  -0.03089   0.06418
  20        2PZ        -0.00098   0.00132   0.00145   0.00247  -0.00059
  21        3S          0.11472  -0.14234  -0.02232   0.15625  -0.06035
  22        3PX        -0.00411  -0.00330  -0.02410  -0.02120  -0.03146
  23        3PY         0.00379   0.00182   0.00492  -0.03246   0.02330
  24        3PZ         0.00001   0.00016   0.00006   0.00165   0.00068
  25        4XX         0.00508  -0.00956  -0.00385   0.00219  -0.00273
  26        4YY         0.00690  -0.00424   0.00207   0.00890  -0.00089
  27        4ZZ        -0.00731   0.00795   0.00145  -0.00634   0.00176
  28        4XY        -0.00628  -0.00481  -0.01072  -0.00459  -0.00791
  29        4XZ        -0.00001   0.00053   0.00053  -0.00008   0.00037
  30        4YZ        -0.00056   0.00061   0.00015  -0.00066   0.00034
  31 3   C  1S         -0.11606   0.00419  -0.09820  -0.02424  -0.06216
  32        2S          0.22296  -0.00756   0.19344   0.04830   0.12464
  33        2PX         0.04545  -0.03490  -0.02061   0.03676  -0.01172
  34        2PY         0.01325   0.08961   0.03232  -0.15939  -0.04586
  35        2PZ        -0.00177  -0.00339  -0.00130   0.00559   0.00226
  36        3S          0.16244  -0.01099   0.15953   0.04150   0.11309
  37        3PX         0.00523  -0.00468  -0.01799   0.00219  -0.02825
  38        3PY         0.00015   0.00704   0.00032  -0.03886  -0.01894
  39        3PZ        -0.00008  -0.00008   0.00016   0.00134   0.00044
  40        4XX         0.00731  -0.00615   0.00465   0.00830   0.00764
  41        4YY         0.00917   0.00530   0.00821  -0.00496  -0.00074
  42        4ZZ        -0.00982   0.00048  -0.00732  -0.00162  -0.00466
  43        4XY        -0.00146   0.00787   0.00261  -0.00882   0.00150
  44        4XZ        -0.00033  -0.00021  -0.00036   0.00012  -0.00034
  45        4YZ        -0.00089  -0.00041  -0.00080   0.00032  -0.00015
  46 4   C  1S         -0.07632  -0.09786  -0.03920   0.08357   0.06126
  47        2S          0.14609   0.18866   0.07798  -0.16621  -0.12323
  48        2PX        -0.01245   0.05948  -0.07731   0.01121  -0.00386
  49        2PY        -0.06724   0.03665  -0.09513   0.01099  -0.12715
  50        2PZ         0.00308  -0.00315   0.00587  -0.00233   0.00737
  51        3S          0.09906   0.14389   0.06382  -0.13267  -0.11524
  52        3PX        -0.00435   0.00120  -0.01765   0.02007   0.02448
  53        3PY        -0.00726   0.00052  -0.01526  -0.01552  -0.04220
  54        3PZ        -0.00037  -0.00068   0.00114   0.00009   0.00324
  55        4XX        -0.00082   0.01179  -0.00623  -0.00607  -0.00756
  56        4YY         0.01159   0.00235   0.01098  -0.00393  -0.00024
  57        4ZZ        -0.00658  -0.00801  -0.00253   0.00627   0.00417
  58        4XY        -0.00029   0.00303  -0.00228   0.00358   0.00264
  59        4XZ         0.00000  -0.00038   0.00037  -0.00046  -0.00003
  60        4YZ        -0.00102  -0.00081  -0.00067   0.00048   0.00050
  61 5   C  1S          0.01853  -0.12028   0.06910  -0.03319   0.00218
  62        2S         -0.03721   0.23471  -0.13608   0.06919  -0.00601
  63        2PX        -0.09106  -0.05134  -0.01437   0.10334   0.18126
  64        2PY         0.00193   0.00803  -0.02270   0.14365  -0.11526
  65        2PZ         0.00088  -0.00469   0.00607  -0.01749   0.00820
  66        3S         -0.02461   0.17773  -0.11182   0.04727  -0.00730
  67        3PX        -0.01745  -0.01454  -0.00608   0.01969   0.05677
  68        3PY        -0.01981   0.01161  -0.00111   0.07297  -0.06734
  69        3PZ         0.00175  -0.00273   0.00183  -0.00464   0.00471
  70        4XX        -0.00039   0.00916   0.00185  -0.00589  -0.00214
  71        4YY        -0.00184   0.00559  -0.00922   0.01062   0.00105
  72        4ZZ         0.00109  -0.00893   0.00517  -0.00192  -0.00027
  73        4XY         0.00866   0.00499   0.00205  -0.00031  -0.01212
  74        4XZ        -0.00017  -0.00029  -0.00009  -0.00034   0.00025
  75        4YZ         0.00038  -0.00185   0.00141  -0.00224   0.00096
  76 6   C  1S          0.10372   0.01175   0.00290   0.02911  -0.07780
  77        2S         -0.20771  -0.02395  -0.00248  -0.05880   0.16040
  78        2PX        -0.07279  -0.05755   0.17383   0.03408  -0.10542
  79        2PY        -0.02702   0.12328   0.06149   0.15293   0.04797
  80        2PZ        -0.00197  -0.00689   0.00431  -0.00967  -0.00531
  81        3S         -0.12979  -0.01022  -0.03826  -0.04741   0.12941
[...]
 Mulliken charges with hydrogens summed into heavy atoms:
              1
     1  C   -0.262932
     2  C    0.150467
     3  C   -0.346057
     4  C    0.438627
     5  C    1.904110
     6  C   -1.711206
    11  C    0.439754
    12  N    0.014498
    13  O   -0.106254
    14  O   -0.153612
    15  O   -0.367394
 Sum of Mulliken charges with hydrogens summed into heavy atoms =   0.00000
 Electronic spatial extent (au):  <R**2>=           1600.6981
 Charge=              0.0000 electrons
 Dipole moment (field-independent basis, Debye):
    X=             -3.0810    Y=             -4.2549    Z=             -0.4502  Tot=              5.2725
 Quadrupole moment (field-independent basis, Debye-Ang):
   XX=            -68.3193   YY=            -65.1153   ZZ=            -64.9435
   XY=              7.7020   XZ=             -0.0114   YZ=             -3.4466
 Traceless Quadrupole moment (field-independent basis, Debye-Ang):
   XX=             -2.1933   YY=              1.0108   ZZ=              1.1825
   XY=              7.7020   XZ=             -0.0114   YZ=             -3.4466
 Octapole moment (field-independent basis, Debye-Ang**2):
  XXX=            -35.9609  YYY=            -44.7520  ZZZ=             -0.4357  XYY=             15.7010
  XXY=            -10.7830  XXZ=              1.8144  XZZ=              8.0573  YZZ=              8.0833
  YYZ=             -0.4301  XYZ=             -4.4130
 Hexadecapole moment (field-independent basis, Debye-Ang**3):
 XXXX=          -1042.4154 YYYY=           -961.8544 ZZZZ=            -92.5103 XXXY=             21.4842
 XXXZ=              4.4663 YYYX=             66.7814 YYYZ=             -4.5907 ZZZX=              0.5506
 ZZZY=              2.0542 XXYY=           -335.0426 XXZZ=           -196.2136 YYZZ=           -176.3568
 XXYZ=            -11.8455 YYXZ=             -3.4422 ZZXY=             -8.1485
 N-N= 5.709878545191D+02 E-N=-2.424441372278D+03  KE= 5.460356122881D+02

 Test job not archived.
 1\1\GINC-PALLAS\SP\RMP2\GTMP2large\C7H5N1O3\JMSOLANO\10-Mar-2020\0\\#N
  Geom=AllCheck Guess=TCheck SCRF=Check Test MP2=FrzG3/GTMP2Large\\2NBA
 Lb-2_opt, G3MP2, qcisd test\\0,1\C,0,-0.0066709093,-0.0154485909,-0.00
 26386927\C,0,-0.0017106783,-0.0118318777,1.3894596376\C,0,1.2088018346
 ,-0.0025459325,2.0866985754\C,0,2.4127196655,0.0211379116,1.390615746\
 C,0,2.4413354559,0.0096744041,-0.010003765\C,0,1.2102849411,-0.0122931
 702,-0.6771030255\H,0,-0.9306223806,-0.0279226145,-0.570979934\H,0,-0.
 9448577275,-0.0254517666,1.9286435889\H,0,1.2109250137,-0.0011584923,3
 .1732408146\H,0,3.365596226,0.0491024176,1.9117195235\C,0,3.7769555776
 ,0.1240989415,-0.6701288243\N,0,1.1546198791,-0.0925215455,-2.13679494
 82\O,0,0.2004431203,0.4642358872,-2.7047706286\O,0,2.0544675787,-0.733
 1648872,-2.7093260832\O,0,4.8151733021,-0.0674298752,-0.0461238798\H,0
 ,3.8007912218,0.4266725661,-1.7263375837\\Version=EM64L-G09RevB.01\Sta
 te=1-A\HF=-547.0591652\MP2=-549.0570203\RMSD=5.169e-09\PG=C01 [X(C7H5N
 1O3)]\\@


 "PERFECTION IS NOT AN ACCIDENT"
         --  EAGLE ELECTRIC MANUFACTURING CO.,INC. NY

 Temperature=              298.150000 Pressure=                      1.000000
 E(ZPE)=                     0.109128 E(Thermal)=                    0.118115
 E(QCISD(T))=             -548.585077 E(Empiric)=                   -0.259812
 DE(MP2)=                   -0.568511
 G3MP2(0 K)=              -549.304272 G3MP2 Energy=               -549.295285
 G3MP2 Enthalpy=          -549.294341 G3MP2 Free Energy=          -549.339295

 Test job not archived.
 1\1\GINC-PALLAS\Mixed\G3MP2\G3MP2\C7H5N1O3\JMSOLANO\10-Mar-2020\0\\#G3
 MP2 QCISD=(Maxcyc=400) opt=(MaxCycles=400) scf=(MaxCycle=600) test GFI
 nput IOP(6/7=3)\\2NBALb-2_opt, G3MP2, qcisd test\\0,1\C,0,-0.006670909
 3,-0.0154485909,-0.0026386927\C,0,-0.0017106783,-0.0118318777,1.389459
 6376\C,0,1.2088018346,-0.0025459325,2.0866985754\C,0,2.4127196655,0.02
 11379116,1.390615746\C,0,2.4413354559,0.0096744041,-0.010003765\C,0,1.
 2102849411,-0.0122931702,-0.6771030255\H,0,-0.9306223806,-0.0279226145
 ,-0.570979934\H,0,-0.9448577275,-0.0254517666,1.9286435889\H,0,1.21092
 50137,-0.0011584923,3.1732408146\H,0,3.365596226,0.0491024176,1.911719
 5235\C,0,3.7769555776,0.1240989415,-0.6701288243\N,0,1.1546198791,-0.0
 925215455,-2.1367949482\O,0,0.2004431203,0.4642358872,-2.7047706286\O,
 0,2.0544675787,-0.7331648872,-2.7093260832\O,0,4.8151733021,-0.0674298
 752,-0.0461238798\H,0,3.8007912218,0.4266725661,-1.7263375837\\Version
 =EM64L-G09RevB.01\State=1-A\MP2/G3Bas1=-548.488509\QCISD(T)/G3Bas1=-54
 8.585077\MP2/GTMP2Large=-549.0570203\G3MP2=-549.3042721\FreqCoord=0.01
 00378758,-0.0253088001,-0.0054404164,0.0133581291,-0.0116488569,2.6099
 29751,2.282163655,0.0163546206,3.9098737569,4.5478018061,0.0441293481,
 2.601134084,4.6031240618,0.0240738348,-0.0220229202,2.2880130395,-0.02
 42531207,-1.2785344269,-1.721280365,-0.0590428898,-1.0536380143,-1.749
 6704152,-0.0303572986,3.6155884228,2.2924081639,0.0259243826,5.9402891
 871,6.3148501292,0.0946919736,3.592518237,7.1601875297,0.2123309304,-1
 .2531951795,2.1625697186,-0.1759925396,-4.0310274151,0.33124869,0.6597
 561221,-5.0405693345,3.889395564,-1.161740227,-5.1023576906,9.03419497
 73,-0.2802969902,-0.1173384481,7.236536871,0.8900905927,-3.181918796\P
 G=C01 [X(C7H5N1O3)]\NImag=0\\0.83297985,0.00930719,0.16874625,0.057827
 85,0.00747816,0.79093999,-0.16931258,-0.00098906,0.05706136,0.83296452
 ,-0.00370199,-0.07828250,-0.00040601,0.00767752,0.16789364,-0.05525254
 ,-0.00224735,-0.37197987,-0.04812463,0.00178920,0.77277791,0.06667954,
 -0.00026041,-0.11997436,-0.32520197,-0.00187144,-0.03291671,0.74878196
 ,0.00118578,0.00826324,-0.00209182,-0.00273351,-0.07800806,0.00004684,
 0.00709324,0.17088849,-0.03725548,-0.00035624,-0.02349789,-0.14282188,
 -0.00213178,-0.22176639,0.00336067,0.00284285,0.85755164,-0.03217430,-
 0.00062971,0.04749358,-0.06929101,-0.00129467,-0.04251884,-0.31957920,
 -0.00367279,0.14225207,0.84154819,0.00028789,-0.00680463,-0.00113518,-
 0.00011749,0.00884795,0.00090945,-0.00510953,-0.07922258,0.00136804,0.
 01729358,0.17131419,0.05595657,-0.00006050,-0.08817030,0.03958892,0.00
 143539,0.11137478,0.03232937,-0.00183693,-0.22099262,0.03907167,0.0054
 7326,0.75998011,-0.07093678,0.00004802,0.04810165,-0.03100942,-0.00096
 902,-0.05504535,0.06110219,0.00229491,0.03225617,-0.16257889,-0.000089
 37,0.04950886,0.74579705,-0.00144408,0.01155021,-0.00049225,-0.0007019
 3,-0.00664645,0.00013401,-0.00111322,0.00875110,-0.00035669,0.00138430
 ,-0.07886436,-0.00387436,0.01694442,0.17275039,-0.04219286,0.00048565,
 0.09331895,-0.04373505,-0.00093322,-0.08512770,0.11408390,0.00360765,-
 0.02286940,-0.05167070,-0.00404351,-0.35158713,0.01363981,-0.01230382,
 0.74134513,-0.32725819,-0.00209675,0.02131102,0.06232969,0.00431021,0.
 12095146,-0.11994254,-0.00213905,0.00184611,0.06235372,0.00072124,-0.1
 1760391,-0.30540155,-0.00850959,-0.02190659,0.82022219,0.00067421,-0.0
 7635503,0.00252164,-0.00074463,0.00610324,-0.00070250,0.00098492,-0.00
 708301,-0.00003456,-0.00208018,0.00685473,-0.00013309,-0.00791298,-0.0
 7247316,-0.00631099,-0.01662336,0.18225338,0.13469600,0.00356137,-0.18
 791826,0.02591253,-0.00062878,-0.03176133,-0.00012630,-0.00018377,-0.0
 0416243,-0.02620019,0.00065767,-0.03319961,-0.11494435,-0.00482098,-0.
 17969594,-0.00665977,0.01770969,0.67562331,-0.31098827,-0.00501899,-0.
 13965498,0.00898430,0.00020144,0.00292559,0.00093698,-0.00003462,0.001
 52108,0.00042277,0.00000906,0.00057052,-0.00340754,-0.00028803,0.00466
 721,-0.02058183,-0.00049631,-0.01776801,0.32275788,-0.00464035,-0.0486
 6803,-0.00433222,-0.00026542,0.00635861,0.00049720,-0.00060853,0.00826
 683,-0.00007309,0.00025412,-0.00085624,-0.00032754,0.00023810,0.006226
 39,0.00022887,-0.00068555,0.00664446,-0.00185102,0.00489685,0.03267349
 ,-0.14333425,-0.00508673,-0.15598005,-0.03148531,-0.00042252,-0.009216
 72,0.00105087,-0.00000809,-0.00646199,0.00095677,0.00002965,-0.0010034
 8,0.00394192,0.00005987,-0.00208620,0.01531082,0.00079670,0.01545936,0
 .15256541,0.00423250,0.16113793,0.00653398,0.00003416,-0.00270553,-0.3
 0895133,-0.00287229,0.13386834,-0.01899826,-0.00023958,0.01870627,-0.0
 0399171,-0.00017835,-0.00432582,0.00006822,0.00004815,-0.00099253,0.00
 156211,-0.00004600,-0.00093732,0.00077083,0.00008253,0.00053629,0.3225
 4422,0.00021111,0.00547293,-0.00035007,-0.00287840,-0.04883566,0.00125
 003,-0.00024632,0.00598506,0.00008196,-0.00000517,0.00841493,0.0002473
 3,-0.00015163,-0.00070657,-0.00018482,-0.00035436,0.00828755,0.0000270
 2,0.00002775,-0.00503682,-0.00001747,0.00315416,0.03234590,0.03332639,
 0.00043608,-0.01132520,0.13353583,0.00120081,-0.15024535,-0.01734875,-
 0.00013712,0.01597615,-0.00405599,-0.00004586,-0.00149483,-0.00087201,
 -0.00000014,-0.00097901,-0.00153685,0.00013651,-0.00583320,-0.00048328
 ,0.00003996,0.00128037,-0.14438887,-0.00136911,0.15202322,-0.00559675,
 -0.00018479,-0.00330154,0.00753778,-0.00012429,-0.03286227,-0.07452168
 ,-0.00045109,-0.00174751,0.00719754,0.00014053,0.03303168,-0.00541619,
 -0.00003564,0.00318854,-0.00191899,0.00004873,-0.00001408,0.00029202,-
 0.00004526,-0.00144838,0.00111067,0.00008273,0.00076744,0.06969996,0.0
 0018412,0.00861536,-0.00011884,0.00002081,0.00620122,-0.00026763,-0.00
 054748,-0.05037457,-0.00161745,-0.00011860,0.00616084,0.00049929,-0.00
 029629,0.00830406,-0.00037460,-0.00040704,0.00012390,-0.00020964,-0.00
 000531,-0.00037608,-0.00001880,0.00009018,-0.00486766,0.00003659,0.000
 52342,0.03277979,-0.00324837,-0.00009012,0.00026249,0.00313678,-0.0000
 5607,-0.01090824,-0.00178590,-0.00156709,-0.38399129,-0.00293488,-0.00
 014008,-0.01127027,0.00322889,0.00002295,0.00026000,-0.00000111,0.0000
 2033,0.00093925,0.00027001,-0.00001418,-0.00056199,-0.00043924,0.00003
 117,0.00090524,0.00177653,0.00173616,0.40408381,0.00009395,0.00000077,
 0.00118445,-0.00359133,-0.00016217,0.00368295,-0.01766500,-0.00039125,
 -0.01669143,-0.31245001,-0.00927563,-0.13786540,0.00663215,0.00036750,
 -0.00050812,0.00084951,-0.00007218,0.00093216,-0.00001457,0.00002729,-
 0.00003630,-0.00087673,-0.00004137,-0.00079341,0.00110324,0.00010959,0
 .00034066,0.32798993,-0.00040247,-0.00080939,0.00083973,-0.00059813,0.
 00813512,-0.00080358,0.00075129,0.00631891,-0.00055533,-0.00916408,-0.
 05012385,-0.00312067,-0.00219684,0.00525916,-0.00015731,0.00059139,0.0
 0713550,-0.00014392,0.00000246,-0.00060476,0.00001006,-0.00003853,-0.0
 0036979,-0.00004895,0.00011810,-0.00495995,0.00002376,0.00926517,0.033
 88710,0.00074704,0.00006479,-0.00098353,0.00412308,-0.00003649,-0.0017
 4337,0.01816114,0.00051743,0.01615305,-0.13534140,-0.00317554,-0.14995
 258,-0.03191900,-0.00098454,-0.01259404,0.00208343,-0.00040678,-0.0057
 3922,-0.00005225,-0.00001860,0.00004923,0.00092755,0.00000120,0.000575
 32,-0.00069201,0.00002339,0.00091814,0.14608338,0.00364647,0.15307191,
 0.00329708,-0.00114217,-0.00901368,0.00322132,0.00017672,0.00277604,-0
 .00013167,-0.00080199,-0.00197686,0.00398876,-0.00255112,0.01915841,-0
 .17288051,-0.00948666,0.05345646,-0.02611839,0.00098479,0.00283449,0.0
 0055262,-0.00004753,-0.00010489,0.00013225,0.00022297,-0.00014915,0.00
 112652,0.00007045,-0.00108049,-0.00111427,0.00143496,-0.00409850,0.948
 66093,0.00004240,0.00717220,-0.00036921,0.00059916,-0.00099080,-0.0001
 8960,0.00005985,0.00890099,0.00049186,-0.00040287,0.00610326,-0.000683
 55,-0.02006458,-0.09411592,0.01297222,0.00239369,0.00116382,0.00120605
 ,0.00007133,0.00114141,0.00002974,0.00002899,-0.00099508,0.00003812,-0
 .00007659,-0.00041492,0.00006380,0.00022187,-0.00466506,0.00070564,-0.
 12777596,0.30905306,-0.00843039,-0.00016889,0.00179826,-0.00439975,-0.
 00007971,-0.00496194,0.00225014,-0.00139505,-0.00974853,0.03978641,0.0
 0275498,-0.01116045,0.05533797,0.01617819,-0.16942675,-0.01311257,-0.0
 0181687,0.02034359,-0.00145999,0.00004951,0.00115590,-0.00014777,0.000
 00605,-0.00008476,0.00172041,0.00011239,-0.00066653,0.00023549,0.00054
 224,-0.00137546,0.25793222,-0.21567403,0.84733070,0.02004802,0.0025072
 7,0.03653295,-0.00952522,0.00063330,0.00635138,-0.00533463,-0.00018377
 ,-0.00043322,-0.00806928,0.00093708,-0.00711572,0.01128676,-0.00084427
 ,-0.03344410,-0.14626012,-0.00398426,-0.00305247,-0.00450568,-0.000729
 99,0.00154944,0.00029141,-0.00011336,0.00231513,-0.00044708,-0.0002190
 3,-0.00003167,0.00067435,-0.00021074,-0.00229252,0.00250125,0.00191799
 ,-0.01334543,1.07459695,-0.00176736,-0.00053339,0.00322442,-0.00001250
 ,0.01043040,-0.00160646,0.00196473,-0.00136333,0.00028241,-0.00100831,
 0.00950396,0.00270737,0.00226025,-0.00440122,-0.00470211,-0.00744415,-
 0.10183130,-0.00942050,0.00210939,-0.00483671,-0.00106937,0.00001432,0
 .00036184,0.00002236,0.00024694,-0.00137364,0.00004071,0.00008180,0.00
 124377,0.00004277,-0.00270937,-0.00666782,0.00690561,-0.36192891,0.483
 25446,0.01428320,-0.00383429,-0.03628531,0.00685301,-0.00091234,0.0039
 9221,0.00288557,0.00008108,0.00208747,-0.00855052,-0.00207426,0.009169
 48,-0.00975461,0.00430617,-0.03157984,-0.00111538,-0.00407691,-0.19619
 233,-0.00264528,0.00146057,0.00085173,-0.00059501,-0.00006735,0.000220
 36,0.00002258,0.00044232,0.00021031,0.00037006,0.00019680,0.00025825,-
 0.00929925,-0.00293671,0.00934792,0.01724318,0.04316571,0.89225830,-0.
 00907753,-0.00086060,0.00422696,0.00230893,-0.00058734,-0.00111011,-0.
 00017910,0.00012997,0.00042710,0.00148998,-0.00100628,-0.00095207,0.00
 450093,0.00024157,0.00059617,-0.00475752,0.01378469,-0.02842546,0.0041
 9874,0.00021916,0.00089568,0.00004657,0.00004986,-0.00045526,0.0003358
 4,0.00008196,0.00002112,-0.00008474,0.00004369,-0.00012121,-0.00064772
 ,-0.00017927,0.00550522,-0.49546926,0.17486308,-0.24099989,0.62402919,
 0.00174999,0.00096591,-0.00239524,0.00040468,-0.00054085,0.00132667,-0
 .00109599,0.00012568,-0.00020157,0.00092905,-0.00120345,-0.00081695,-0
 .00218738,0.00304948,0.00248990,0.01205874,0.02093723,0.00920305,-0.00
 070236,-0.00013912,0.00056327,-0.00003613,-0.00002112,0.00004478,-0.00
 008634,0.00008568,0.00003141,-0.00002456,-0.00037152,0.00013814,0.0012
 5161,0.00150835,-0.00382485,0.17551683,-0.17912402,0.10273855,-0.27064
 898,0.16342649,-0.00149938,0.00198493,-0.00595712,-0.00118071,-0.00058
 607,0.00167168,-0.00277184,-0.00013667,-0.00066914,-0.00038380,-0.0009
 0124,-0.00415338,0.00698146,0.00047848,-0.00386476,-0.05438978,0.01988
 407,-0.03206690,-0.00053776,0.00113467,-0.00501880,0.00022432,0.000146
 41,-0.00025842,-0.00004732,0.00007043,-0.00019896,0.00011494,-0.000212
 60,-0.00090783,0.00356515,0.00062731,-0.00047842,-0.21741877,0.0910240
 8,-0.31878420,0.26298443,-0.11382739,0.30122178,0.00135300,-0.00071261
 ,-0.00215015,0.00253679,-0.00126698,0.00096818,0.00061929,-0.00001306,
 0.00042979,0.00023496,-0.00164695,0.00266174,-0.00159641,0.00125810,-0
 .00181664,0.00272984,0.01546857,0.02210915,0.00165525,0.00148267,-0.00
 120139,-0.00003333,0.00007059,0.00006513,0.00025922,0.00037792,0.00002
 136,-0.00018177,0.00024569,0.00053942,-0.00900867,-0.00635981,0.009803
 35,-0.43452383,0.19139398,0.22348270,-0.12749184,0.08329588,0.00722806
 ,0.56254431,-0.00163571,0.00264214,-0.00291873,0.00076405,-0.00092023,
 0.00022615,-0.00086433,0.00023815,0.00010729,0.00048369,-0.00062663,-0
 .00153578,0.00021019,0.00091614,0.00354391,0.01905666,0.01667063,-0.01
 334459,-0.00081167,-0.00028061,0.00093896,-0.00003065,-0.00020138,-0.0
 0030002,-0.00011504,0.00002913,-0.00006139,-0.00002243,-0.00019673,-0.
 00003616,-0.00186313,-0.00199867,-0.00105325,0.19126787,-0.20849481,-0
 .14013198,0.08217241,-0.00738746,0.00000337,-0.28514798,0.19986677,-0.
 00746148,-0.00184211,-0.00455662,0.00027015,0.00166163,-0.00297204,0.0
 0137057,-0.00009635,-0.00051033,0.00051810,0.00052296,0.00031321,0.001
 60387,-0.00228929,0.00165151,0.05073390,-0.02756431,-0.03316823,-0.000
 15869,-0.00113286,0.00062862,0.00003912,0.00023632,-0.00096012,-0.0000
 8132,-0.00017535,-0.00015647,-0.00000714,-0.00005566,-0.00030492,0.002
 02400,-0.00057976,-0.00785887,0.20438432,-0.12568365,-0.33130787,0.001
 07228,0.00157658,0.06977313,-0.24810195,0.15810630,0.30892539,-0.00503
 582,-0.00054998,0.00265857,-0.00267714,-0.00011354,-0.00318255,0.00239
 970,-0.00080251,-0.00144168,-0.00276756,0.00095207,-0.00502153,-0.0782
 8711,0.01170198,-0.02142198,0.00133279,-0.00010706,0.01173587,-0.00096
 384,-0.00010843,0.00072429,-0.00017108,0.00005572,0.00011071,-0.000306
 41,0.00015638,0.00048227,-0.00151194,0.00036394,0.00177208,-0.67906468
 ,0.15926844,-0.36282365,0.00100599,0.00084353,0.00534284,-0.00070649,0
 .00018161,-0.00256255,0.00045575,-0.00122910,-0.00228461,0.76769952,0.
 00029102,-0.00113686,0.00038257,-0.00021944,0.00011226,0.00011689,-0.0
 0020135,-0.00068582,-0.00037964,0.00042484,-0.00037332,0.00149699,0.00
 820008,0.02161533,-0.00153070,-0.00116574,0.00218385,-0.00128970,0.000
 07056,-0.00045989,-0.00006580,0.00001672,0.00009459,-0.00003255,0.0001
 1437,0.00011551,-0.00009254,-0.00040212,-0.00025081,-0.00017894,0.1533
 6400,-0.12378965,0.11411970,-0.00211945,0.00158016,0.00112998,0.000669
 35,-0.00063233,0.00015972,0.00301660,0.00102227,0.00009394,-0.18103067
 ,0.08248986,0.00120819,0.00008402,0.00061142,0.00094875,0.00001970,0.0
 0052713,-0.00022791,0.00059279,0.00321698,-0.00045678,-0.00083579,-0.0
 0798135,-0.00202101,-0.00359657,0.02957431,0.00387825,0.00016525,-0.00
 118144,0.00010251,0.00008279,-0.00013119,0.00019339,-0.00006370,0.0001
 8383,-0.00046198,-0.00005617,0.00025715,0.00314112,-0.00034584,0.00243
 223,-0.35099344,0.11451621,-0.35288817,0.00673811,-0.00303584,-0.00279
 662,-0.00271171,0.00168970,-0.00037665,-0.00618632,-0.00080751,0.00192
 469,0.39705384,-0.12881569,0.34328784,-0.00060520,0.00054766,0.0004018
 4,-0.00032334,-0.00003546,-0.00051093,0.00103437,0.00075933,0.00156880
 ,-0.00633398,-0.00036670,0.00100670,0.00212711,-0.00952260,0.02805649,
 0.00085929,0.00012105,-0.00009224,-0.00010966,-0.00006965,0.00007902,-
 0.00003782,-0.00008427,-0.00003705,-0.00045569,-0.00002108,0.00024404,
 0.00014722,-0.00020590,0.00007977,-0.07451483,-0.00974464,0.03114834,-
 0.00626962,0.00109261,0.00247679,0.00150401,-0.00060664,-0.00030647,0.
 00044744,-0.00223483,-0.00392112,-0.00140168,0.01897122,-0.05020501,0.
 08393239,-0.00034175,-0.00083840,0.00016305,-0.00020571,0.00014212,-0.
 00047931,0.00106458,-0.00100108,0.00053192,-0.00239320,0.00087519,0.00
 052974,0.00367213,0.01878544,0.00721288,0.00029369,-0.00061576,-0.0004
 7195,-0.00003155,-0.00005294,0.00002804,-0.00002767,0.00007128,-0.0000
 2145,-0.00015576,-0.00004867,0.00005117,0.00031772,0.00037228,-0.00030
 279,-0.01112757,-0.10140516,0.08334396,-0.00244656,0.00225165,0.000512
 65,0.00102673,-0.00067895,0.00015049,-0.00146261,-0.00127871,-0.002778
 41,0.01041763,0.01811487,0.02040664,0.00139992,0.06530683,0.00062950,-
 0.00040878,-0.00027695,0.00031693,0.00008624,0.00033924,-0.00034046,-0
 .00023575,-0.00031529,0.00203450,0.00063544,0.00012843,-0.00004426,0.0
 0753896,-0.00633913,0.00021096,-0.00018819,-0.00144662,0.00013790,0.00
 002343,-0.00010272,0.00003679,0.00002503,0.00001640,0.00014923,-0.0000
 8209,-0.00008263,-0.00018341,0.00018480,0.00014283,0.03496950,0.089781
 90,-0.32132649,0.00201939,-0.00189752,-0.00144984,-0.00095326,0.001263
 95,0.00006799,-0.00785241,-0.00273657,-0.00142107,-0.02114193,0.014885
 77,-0.01666015,-0.00998897,-0.10887662,0.34872599\\0.00001505,-0.00000
 707,-0.00004950,0.00001788,0.00000381,0.00002651,-0.00002840,0.0000044
 0,-0.00000226,0.00000882,-0.00001130,-0.00003210,0.00003604,0.00001251
 ,0.00003314,-0.00003679,-0.00000318,0.00000143,-0.00000155,0.00000241,
 0.00000013,0.00000215,-0.00000167,-0.00000174,0.00000057,-0.00000013,-
 0.00000287,0.00000026,0.00000128,0.00000139,0.00001876,-0.00000804,0.0
 0000657,0.00000526,0.00001487,-0.00002386,-0.00002877,0.00000782,0.000
 03165,0.00002192,-0.00002226,0.00001623,-0.00002512,0.00000436,-0.0000
 0846,-0.00000608,0.00000220,0.00000374\\\@
 Job cpu time:  0 days  0 hours 38 minutes  3.5 seconds.
 File lengths (MBytes):  RWF=  12534 Int=      0 D2E=      0 Chk=     11 Scr=      1
 Normal termination of Gaussian 09 at Tue Mar 10 22:04:12 2020.
