 Entering Gaussian System, Link 0=g09
 Input=3NBALb_opt.inp
 Output=3NBALb_opt.log
 Initial command:
 /usr/local/g09/l1.exe /home/g09scr/Gau-30243.inp -scrdir=/home/g09scr/
 Entering Link 1 = /usr/local/g09/l1.exe PID=     30245.
  
 Copyright (c) 1988,1990,1992,1993,1995,1998,2003,2009,2010,
            Gaussian, Inc.  All Rights Reserved.
  
 This is part of the Gaussian(R) 09 program.  It is based on
 the Gaussian(R) 03 system (copyright 2003, Gaussian, Inc.),
 the Gaussian(R) 98 system (copyright 1998, Gaussian, Inc.),
 the Gaussian(R) 94 system (copyright 1995, Gaussian, Inc.),
 the Gaussian 92(TM) system (copyright 1992, Gaussian, Inc.),
 the Gaussian 90(TM) system (copyright 1990, Gaussian, Inc.),
 the Gaussian 88(TM) system (copyright 1988, Gaussian, Inc.),
 the Gaussian 86(TM) system (copyright 1986, Carnegie Mellon
 University), and the Gaussian 82(TM) system (copyright 1983,
 Carnegie Mellon University). Gaussian is a federally registered
 trademark of Gaussian, Inc.
  
 This software contains proprietary and confidential information,
 including trade secrets, belonging to Gaussian, Inc.
  
 This software is provided under written license and may be
 used, copied, transmitted, or stored only in accord with that
 written license.
  
 The following legend is applicable only to US Government
 contracts under FAR:
  
                    RESTRICTED RIGHTS LEGEND
  
 Use, reproduction and disclosure by the US Government is
 subject to restrictions as set forth in subparagraphs (a)
 and (c) of the Commercial Computer Software - Restricted
 Rights clause in FAR 52.227-19.
  
 Gaussian, Inc.
 340 Quinnipiac St., Bldg. 40, Wallingford CT 06492
  
  
 ---------------------------------------------------------------
 Warning -- This program may not be used in any manner that
 competes with the business of Gaussian, Inc. or will provide
 assistance to any competitor of Gaussian, Inc.  The licensee
 of this program is prohibited from giving any competitor of
 Gaussian, Inc. access to this program.  By using this program,
 the user acknowledges that Gaussian, Inc. is engaged in the
 business of creating and licensing software in the field of
 computational chemistry and represents and warrants to the
 licensee that it is not a competitor of Gaussian, Inc. and that
 it will not use this program in any manner prohibited above.
 ---------------------------------------------------------------
  

 Cite this work as:
 Gaussian 09, Revision B.01,
 M. J. Frisch, G. W. Trucks, H. B. Schlegel, G. E. Scuseria, 
 M. A. Robb, J. R. Cheeseman, G. Scalmani, V. Barone, B. Mennucci, 
 G. A. Petersson, H. Nakatsuji, M. Caricato, X. Li, H. P. Hratchian, 
 A. F. Izmaylov, J. Bloino, G. Zheng, J. L. Sonnenberg, M. Hada, 
 M. Ehara, K. Toyota, R. Fukuda, J. Hasegawa, M. Ishida, T. Nakajima, 
 Y. Honda, O. Kitao, H. Nakai, T. Vreven, J. A. Montgomery, Jr., 
 J. E. Peralta, F. Ogliaro, M. Bearpark, J. J. Heyd, E. Brothers, 
 K. N. Kudin, V. N. Staroverov, T. Keith, R. Kobayashi, J. Normand, 
 K. Raghavachari, A. Rendell, J. C. Burant, S. S. Iyengar, J. Tomasi, 
 M. Cossi, N. Rega, J. M. Millam, M. Klene, J. E. Knox, J. B. Cross, 
 V. Bakken, C. Adamo, J. Jaramillo, R. Gomperts, R. E. Stratmann, 
 O. Yazyev, A. J. Austin, R. Cammi, C. Pomelli, J. W. Ochterski, 
 R. L. Martin, K. Morokuma, V. G. Zakrzewski, G. A. Voth, 
 P. Salvador, J. J. Dannenberg, S. Dapprich, A. D. Daniels, 
 O. Farkas, J. B. Foresman, J. V. Ortiz, J. Cioslowski, 
 and D. J. Fox, Gaussian, Inc., Wallingford CT, 2010.
 
 ******************************************
 Gaussian 09:  EM64L-G09RevB.01 12-Aug-2010
                10-Mar-2020 
 ******************************************
 %chk=3NBALb_opt.chk
 %nprocshared=6
 Will use up to    6 processors via shared memory.
 %mem=100GB
 ----------------------------------------------------------------------
 #G3MP2 QCISD=(Maxcyc=400) opt=(MaxCycles=400) scf=(MaxCycle=600) test 
 GFInput IOP(6/7=3)
 ----------------------------------------------------------------------
 1/6=400,18=20,19=15,38=1/1,3;
 2/9=110,12=2,17=6,18=5,40=1/2;
 3/5=33,7=1,11=9,16=1,24=10,25=1,30=1,71=1/1,2,3;
 4//1;
 5/5=2,7=600,38=5/2;
 6/7=3,8=2,9=2,10=2,28=1/1;
 7//1,2,3,16;
 1/6=400,18=20,19=15/3(2);
 2/9=110/2;
 99//99;
 2/9=110/2;
 3/5=33,7=1,11=9,16=1,25=1,30=1,71=1/1,2,3;
 4/5=5,16=3/1;
 5/5=2,7=600,38=5/2;
 7//1,2,3,16;
 1/6=400,18=20,19=15/3(-5);
 2/9=110/2;
 6/7=3,8=2,9=2,10=2,19=2,28=1/1;
 99/9=1/99;
 -----------------------------
 3NBALb_opt, G3MP2, qcisd test
 -----------------------------
 Symbolic Z-matrix:
 Charge =  0 Multiplicity = 1
 C
 C                    1    r02
 C                    2    r03      1    a03
 C                    3    r04      2    a04      1    d04      0
 C                    4    r05      3    a05      2    d05      0
 C                    5    r06      4    a06      3    d06      0
 H                    1    r07      2    a07      3    d07      0
 H                    2    r08      3    a08      1    d08      0
 H                    3    r09      4    a09      2    d09      0
 C                    4    r10      5    a10      3    d10      0
 H                    5    r11      6    a11      4    d11      0
 N                    6    r12      1    a12      2    d12      0
 O                    12   r13      6    a13      5    d13      0
 O                    12   r14      6    a14      1    d14      0
 O                    10   r15      4    a15      3    d15      0
 H                    10   r16      4    a16      15   d16      0
       Variables:
  r02                   1.39407                  
  r03                   1.38897                  
  a03                 120.09287                  
  r04                   1.40119                  
  a04                 120.31107                  
  d04                   0.03184                  
  r05                   1.39393                  
  a05                 120.01902                  
  d05                  -0.02231                  
  r06                   1.38797                  
  a06                 118.67639                  
  d06                  -0.00089                  
  r07                   1.08178                  
  a07                 122.00654                  
  d07                 179.98416                  
  r08                   1.08406                  
  a08                 120.29341                  
  d08                 179.9865                   
  r09                   1.0843                   
  a09                 118.20602                  
  d09                 180.0104                   
  r10                   1.48486                  
  a10                 119.71768                  
  d10                 179.95993                  
  r11                   1.08327                  
  a11                 119.64403                  
  d11                 180.01058                  
  r12                   1.47556                  
  a12                 118.98213                  
  d12                 179.99915                  
  r13                   1.22331                  
  a13                 117.46566                  
  d13                 179.74854                  
  r14                   1.22359                  
  a14                 117.39296                  
  d14                 179.79281                  
  r15                   1.2072                   
  a15                 124.18514                  
  d15                   0.27006                  
  r16                   1.11187                  
  a16                 114.40071                  
  d16                 180.01455                  
 

 GradGradGradGradGradGradGradGradGradGradGradGradGradGradGradGradGradGrad
 Berny optimization.
 Initialization pass.
                           ----------------------------
                           !    Initial Parameters    !
                           ! (Angstroms and Degrees)  !
 --------------------------                            --------------------------
 ! Name  Definition              Value          Derivative Info.                !
 --------------------------------------------------------------------------------
 ! R1    R(1,2)                  1.3941         estimate D2E/DX2                !
 ! R2    R(1,6)                  1.39           estimate D2E/DX2                !
 ! R3    R(1,7)                  1.0818         estimate D2E/DX2                !
 ! R4    R(2,3)                  1.389          estimate D2E/DX2                !
 ! R5    R(2,8)                  1.0841         estimate D2E/DX2                !
 ! R6    R(3,4)                  1.4012         estimate D2E/DX2                !
 ! R7    R(3,9)                  1.0843         estimate D2E/DX2                !
 ! R8    R(4,5)                  1.3939         estimate D2E/DX2                !
 ! R9    R(4,10)                 1.4849         estimate D2E/DX2                !
 ! R10   R(5,6)                  1.388          estimate D2E/DX2                !
 ! R11   R(5,11)                 1.0833         estimate D2E/DX2                !
 ! R12   R(6,12)                 1.4756         estimate D2E/DX2                !
 ! R13   R(10,15)                1.2072         estimate D2E/DX2                !
 ! R14   R(10,16)                1.1119         estimate D2E/DX2                !
 ! R15   R(12,13)                1.2233         estimate D2E/DX2                !
 ! R16   R(12,14)                1.2236         estimate D2E/DX2                !
 ! A1    A(2,1,6)              118.8367         estimate D2E/DX2                !
 ! A2    A(2,1,7)              122.0065         estimate D2E/DX2                !
 ! A3    A(6,1,7)              119.1568         estimate D2E/DX2                !
 ! A4    A(1,2,3)              120.0929         estimate D2E/DX2                !
 ! A5    A(1,2,8)              119.6137         estimate D2E/DX2                !
 ! A6    A(3,2,8)              120.2934         estimate D2E/DX2                !
 ! A7    A(2,3,4)              120.3111         estimate D2E/DX2                !
 ! A8    A(2,3,9)              121.4829         estimate D2E/DX2                !
 ! A9    A(4,3,9)              118.206          estimate D2E/DX2                !
 ! A10   A(3,4,5)              120.019          estimate D2E/DX2                !
 ! A11   A(3,4,10)             120.2633         estimate D2E/DX2                !
 ! A12   A(5,4,10)             119.7177         estimate D2E/DX2                !
 ! A13   A(4,5,6)              118.6764         estimate D2E/DX2                !
 ! A14   A(4,5,11)             121.6796         estimate D2E/DX2                !
 ! A15   A(6,5,11)             119.644          estimate D2E/DX2                !
 ! A16   A(1,6,5)              122.064          estimate D2E/DX2                !
 ! A17   A(1,6,12)             118.9821         estimate D2E/DX2                !
 ! A18   A(5,6,12)             118.9539         estimate D2E/DX2                !
 ! A19   A(4,10,15)            124.1851         estimate D2E/DX2                !
 ! A20   A(4,10,16)            114.4007         estimate D2E/DX2                !
 ! A21   A(15,10,16)           121.4141         estimate D2E/DX2                !
 ! A22   A(6,12,13)            117.4657         estimate D2E/DX2                !
 ! A23   A(6,12,14)            117.393          estimate D2E/DX2                !
 ! A24   A(13,12,14)           125.1414         estimate D2E/DX2                !
 ! D1    D(6,1,2,3)             -0.0179         estimate D2E/DX2                !
 ! D2    D(6,1,2,8)            179.9955         estimate D2E/DX2                !
 ! D3    D(7,1,2,3)            179.9842         estimate D2E/DX2                !
 ! D4    D(7,1,2,8)             -0.0024         estimate D2E/DX2                !
 ! D5    D(2,1,6,5)             -0.0056         estimate D2E/DX2                !
 ! D6    D(2,1,6,12)           179.9992         estimate D2E/DX2                !
 ! D7    D(7,1,6,5)            179.9924         estimate D2E/DX2                !
 ! D8    D(7,1,6,12)            -0.0029         estimate D2E/DX2                !
 ! D9    D(1,2,3,4)              0.0318         estimate D2E/DX2                !
 ! D10   D(1,2,3,9)           -179.9789         estimate D2E/DX2                !
 ! D11   D(8,2,3,4)           -179.9817         estimate D2E/DX2                !
 ! D12   D(8,2,3,9)              0.0076         estimate D2E/DX2                !
 ! D13   D(2,3,4,5)             -0.0223         estimate D2E/DX2                !
 ! D14   D(2,3,4,10)          -179.982          estimate D2E/DX2                !
 ! D15   D(9,3,4,5)            179.9881         estimate D2E/DX2                !
 ! D16   D(9,3,4,10)             0.0284         estimate D2E/DX2                !
 ! D17   D(3,4,5,6)             -0.0009         estimate D2E/DX2                !
 ! D18   D(3,4,5,11)           179.9883         estimate D2E/DX2                !
 ! D19   D(10,4,5,6)           179.959          estimate D2E/DX2                !
 ! D20   D(10,4,5,11)           -0.0518         estimate D2E/DX2                !
 ! D21   D(3,4,10,15)            0.2701         estimate D2E/DX2                !
 ! D22   D(3,4,10,16)         -179.7154         estimate D2E/DX2                !
 ! D23   D(5,4,10,15)         -179.6898         estimate D2E/DX2                !
 ! D24   D(5,4,10,16)            0.3248         estimate D2E/DX2                !
 ! D25   D(4,5,6,1)              0.0149         estimate D2E/DX2                !
 ! D26   D(4,5,6,12)          -179.9898         estimate D2E/DX2                !
 ! D27   D(11,5,6,1)          -179.9745         estimate D2E/DX2                !
 ! D28   D(11,5,6,12)            0.0208         estimate D2E/DX2                !
 ! D29   D(1,6,12,13)           -0.256          estimate D2E/DX2                !
 ! D30   D(1,6,12,14)          179.7928         estimate D2E/DX2                !
 ! D31   D(5,6,12,13)          179.7485         estimate D2E/DX2                !
 ! D32   D(5,6,12,14)           -0.2026         estimate D2E/DX2                !
 --------------------------------------------------------------------------------
 Trust Radius=3.00D-01 FncErr=1.00D-07 GrdErr=1.00D-07
 Number of steps in this run=    100 maximum allowed number of steps=    100.
 GradGradGradGradGradGradGradGradGradGradGradGradGradGradGradGradGradGrad

                          Input orientation:                          
 ---------------------------------------------------------------------
 Center     Atomic      Atomic             Coordinates (Angstroms)
 Number     Number       Type             X           Y           Z
 ---------------------------------------------------------------------
      1          6           0        0.000000    0.000000    0.000000
      2          6           0        0.000000    0.000000    1.394065
      3          6           0        1.201753    0.000000    2.090498
      4          6           0        2.420131    0.000672    1.398473
      5          6           0        2.430421    0.000875    0.004585
      6          6           0        1.217643    0.000381   -0.670421
      7          1           0       -0.917334   -0.000254   -0.573359
      8          1           0       -0.942458   -0.000221    1.929755
      9          1           0        1.228057   -0.000340    3.174479
     10          6           0        3.704234    0.000269    2.144059
     11          1           0        3.356460    0.001580   -0.557496
     12          7           0        1.221389    0.000363   -2.145980
     13          8           0        0.137405   -0.004842   -2.712947
     14          8           0        2.309192    0.004633   -2.706181
     15          8           0        3.789385   -0.005335    3.348242
     16          1           0        4.609882    0.005897    1.499062
 ---------------------------------------------------------------------
                    Distance matrix (angstroms):
                    1          2          3          4          5
     1  C    0.000000
     2  C    1.394065   0.000000
     3  C    2.411305   1.388967   0.000000
     4  C    2.795132   2.420135   1.401193   0.000000
     5  C    2.430426   2.799572   2.420879   1.393926   0.000000
     6  C    1.390007   2.396822   2.760964   2.392969   1.387971
     7  H    1.081778   2.170775   3.403919   3.876442   3.397276
     8  H    2.147599   1.084062   2.150228   3.404302   3.883632
     9  H    3.403739   2.162868   1.084301   2.138981   3.390267
    10  C    4.279992   3.779396   2.503053   1.484863   2.489969
    11  H    3.402445   3.882579   3.413888   2.168531   1.083274
    12  N    2.469215   3.744825   4.236523   3.741675   2.467122
    13  O    2.716429   4.109313   4.919953   4.702621   3.555691
    14  O    3.557500   4.705785   4.922862   4.106155   2.713478
    15  O    5.056698   4.263599   2.877115   2.382539   3.609275
    16  H    4.847497   4.611081   3.459071   2.192066   2.642638
                    6          7          8          9         10
     6  C    0.000000
     7  H    2.137183   0.000000
     8  H    3.380378   2.503240   0.000000
     9  H    3.844914   4.318448   2.502094   0.000000
    10  C    3.755586   5.361273   4.651631   2.682017   0.000000
    11  H    2.141797   4.273824   4.966601   4.296247   2.723848
    12  N    1.475564   2.654670   4.614526   5.320463   4.956708
    13  O    2.310596   2.385441   4.766634   5.987598   6.026010
    14  O    2.309939   3.867742   5.662610   5.979217   5.046879
    15  O    4.771115   6.126352   4.939886   2.567221   1.207203
    16  H    4.026657   5.902972   5.569023   3.774096   1.111868
                   11         12         13         14         15
    11  H    0.000000
    12  N    2.661168   0.000000
    13  O    3.874058   1.223315   0.000000
    14  O    2.390320   1.223585   2.171819   0.000000
    15  O    3.929664   6.064744   7.076367   6.232745   0.000000
    16  H    2.408426   4.976771   6.143630   4.793458   2.023069
                   16
    16  H    0.000000
 Stoichiometry    C7H5NO3
 Framework group  C1[X(C7H5NO3)]
 Deg. of freedom    42
 Full point group                 C1      NOp   1
 Largest Abelian subgroup         C1      NOp   1
 Largest concise Abelian subgroup C1      NOp   1
                         Standard orientation:                         
 ---------------------------------------------------------------------
 Center     Atomic      Atomic             Coordinates (Angstroms)
 Number     Number       Type             X           Y           Z
 ---------------------------------------------------------------------
      1          6           0       -0.807574    1.489636   -0.000994
      2          6           0        0.473456    2.039529   -0.001707
      3          6           0        1.587453    1.209929   -0.001500
      4          6           0        1.432134   -0.182630   -0.001246
      5          6           0        0.155326   -0.741909   -0.000732
      6          6           0       -0.943331    0.106275   -0.000461
      7          1           0       -1.696288    2.106426   -0.000878
      8          1           0        0.593954    3.116874   -0.002203
      9          1           0        2.593917    1.613338   -0.001701
     10          6           0        2.623782   -1.068513   -0.000622
     11          1           0        0.004100   -1.814575   -0.000714
     12          7           0       -2.297769   -0.479205    0.000313
     13          8           0       -3.246343    0.293247    0.005300
     14          8           0       -2.383460   -1.699781   -0.003160
     15          8           0        3.763916   -0.671764    0.004406
     16          1           0        2.388319   -2.155152   -0.005495
 ---------------------------------------------------------------------
 Rotational constants (GHZ):      2.5550500      0.6879529      0.5420156
 Standard basis: GTBas1 (6D, 7F)
 AO basis set in the form of general basis input (Overlap normalization):
      1 0
 S   6 1.00       0.000000000000
      0.3047524880D+04  0.1834737132D-02
      0.4573695180D+03  0.1403732281D-01
      0.1039486850D+03  0.6884262226D-01
      0.2921015530D+02  0.2321844432D+00
      0.9286662960D+01  0.4679413484D+00
      0.3163926960D+01  0.3623119853D+00
 SP   3 1.00       0.000000000000
      0.7868272350D+01 -0.1193324198D+00  0.6899906659D-01
      0.1881288540D+01 -0.1608541517D+00  0.3164239610D+00
      0.5442492580D+00  0.1143456438D+01  0.7443082909D+00
 SP   1 1.00       0.000000000000
      0.1687144782D+00  0.1000000000D+01  0.1000000000D+01
 D   1 1.00       0.000000000000
      0.8000000000D+00  0.1000000000D+01
 ****
      2 0
 S   6 1.00       0.000000000000
      0.3047524880D+04  0.1834737132D-02
      0.4573695180D+03  0.1403732281D-01
      0.1039486850D+03  0.6884262226D-01
      0.2921015530D+02  0.2321844432D+00
      0.9286662960D+01  0.4679413484D+00
      0.3163926960D+01  0.3623119853D+00
 SP   3 1.00       0.000000000000
      0.7868272350D+01 -0.1193324198D+00  0.6899906659D-01
      0.1881288540D+01 -0.1608541517D+00  0.3164239610D+00
      0.5442492580D+00  0.1143456438D+01  0.7443082909D+00
 SP   1 1.00       0.000000000000
      0.1687144782D+00  0.1000000000D+01  0.1000000000D+01
 D   1 1.00       0.000000000000
      0.8000000000D+00  0.1000000000D+01
 ****
      3 0
 S   6 1.00       0.000000000000
      0.3047524880D+04  0.1834737132D-02
      0.4573695180D+03  0.1403732281D-01
      0.1039486850D+03  0.6884262226D-01
      0.2921015530D+02  0.2321844432D+00
      0.9286662960D+01  0.4679413484D+00
      0.3163926960D+01  0.3623119853D+00
 SP   3 1.00       0.000000000000
      0.7868272350D+01 -0.1193324198D+00  0.6899906659D-01
      0.1881288540D+01 -0.1608541517D+00  0.3164239610D+00
      0.5442492580D+00  0.1143456438D+01  0.7443082909D+00
 SP   1 1.00       0.000000000000
      0.1687144782D+00  0.1000000000D+01  0.1000000000D+01
 D   1 1.00       0.000000000000
      0.8000000000D+00  0.1000000000D+01
 ****
      4 0
 S   6 1.00       0.000000000000
      0.3047524880D+04  0.1834737132D-02
      0.4573695180D+03  0.1403732281D-01
      0.1039486850D+03  0.6884262226D-01
      0.2921015530D+02  0.2321844432D+00
      0.9286662960D+01  0.4679413484D+00
      0.3163926960D+01  0.3623119853D+00
 SP   3 1.00       0.000000000000
      0.7868272350D+01 -0.1193324198D+00  0.6899906659D-01
      0.1881288540D+01 -0.1608541517D+00  0.3164239610D+00
      0.5442492580D+00  0.1143456438D+01  0.7443082909D+00
 SP   1 1.00       0.000000000000
      0.1687144782D+00  0.1000000000D+01  0.1000000000D+01
 D   1 1.00       0.000000000000
      0.8000000000D+00  0.1000000000D+01
 ****
      5 0
 S   6 1.00       0.000000000000
      0.3047524880D+04  0.1834737132D-02
      0.4573695180D+03  0.1403732281D-01
      0.1039486850D+03  0.6884262226D-01
      0.2921015530D+02  0.2321844432D+00
      0.9286662960D+01  0.4679413484D+00
      0.3163926960D+01  0.3623119853D+00
 SP   3 1.00       0.000000000000
      0.7868272350D+01 -0.1193324198D+00  0.6899906659D-01
      0.1881288540D+01 -0.1608541517D+00  0.3164239610D+00
      0.5442492580D+00  0.1143456438D+01  0.7443082909D+00
 SP   1 1.00       0.000000000000
      0.1687144782D+00  0.1000000000D+01  0.1000000000D+01
 D   1 1.00       0.000000000000
      0.8000000000D+00  0.1000000000D+01
 ****
      6 0
 S   6 1.00       0.000000000000
      0.3047524880D+04  0.1834737132D-02
      0.4573695180D+03  0.1403732281D-01
      0.1039486850D+03  0.6884262226D-01
      0.2921015530D+02  0.2321844432D+00
      0.9286662960D+01  0.4679413484D+00
      0.3163926960D+01  0.3623119853D+00
 SP   3 1.00       0.000000000000
      0.7868272350D+01 -0.1193324198D+00  0.6899906659D-01
      0.1881288540D+01 -0.1608541517D+00  0.3164239610D+00
      0.5442492580D+00  0.1143456438D+01  0.7443082909D+00
 SP   1 1.00       0.000000000000
      0.1687144782D+00  0.1000000000D+01  0.1000000000D+01
 D   1 1.00       0.000000000000
      0.8000000000D+00  0.1000000000D+01
 ****
      7 0
 S   3 1.00       0.000000000000
      0.1873113696D+02  0.3349460434D-01
      0.2825394365D+01  0.2347269535D+00
      0.6401216923D+00  0.8137573261D+00
 S   1 1.00       0.000000000000
      0.1612777588D+00  0.1000000000D+01
 ****
      8 0
 S   3 1.00       0.000000000000
      0.1873113696D+02  0.3349460434D-01
      0.2825394365D+01  0.2347269535D+00
      0.6401216923D+00  0.8137573261D+00
 S   1 1.00       0.000000000000
      0.1612777588D+00  0.1000000000D+01
 ****
      9 0
 S   3 1.00       0.000000000000
      0.1873113696D+02  0.3349460434D-01
      0.2825394365D+01  0.2347269535D+00
      0.6401216923D+00  0.8137573261D+00
 S   1 1.00       0.000000000000
      0.1612777588D+00  0.1000000000D+01
 ****
     10 0
 S   6 1.00       0.000000000000
      0.3047524880D+04  0.1834737132D-02
      0.4573695180D+03  0.1403732281D-01
      0.1039486850D+03  0.6884262226D-01
      0.2921015530D+02  0.2321844432D+00
      0.9286662960D+01  0.4679413484D+00
      0.3163926960D+01  0.3623119853D+00
 SP   3 1.00       0.000000000000
      0.7868272350D+01 -0.1193324198D+00  0.6899906659D-01
      0.1881288540D+01 -0.1608541517D+00  0.3164239610D+00
      0.5442492580D+00  0.1143456438D+01  0.7443082909D+00
 SP   1 1.00       0.000000000000
      0.1687144782D+00  0.1000000000D+01  0.1000000000D+01
 D   1 1.00       0.000000000000
      0.8000000000D+00  0.1000000000D+01
 ****
     11 0
 S   3 1.00       0.000000000000
      0.1873113696D+02  0.3349460434D-01
      0.2825394365D+01  0.2347269535D+00
      0.6401216923D+00  0.8137573261D+00
 S   1 1.00       0.000000000000
      0.1612777588D+00  0.1000000000D+01
 ****
     12 0
 S   6 1.00       0.000000000000
      0.4173511460D+04  0.1834772160D-02
      0.6274579110D+03  0.1399462700D-01
      0.1429020930D+03  0.6858655181D-01
      0.4023432930D+02  0.2322408730D+00
      0.1282021290D+02  0.4690699481D+00
      0.4390437010D+01  0.3604551991D+00
 SP   3 1.00       0.000000000000
      0.1162636186D+02 -0.1149611817D+00  0.6757974388D-01
      0.2716279807D+01 -0.1691174786D+00  0.3239072959D+00
      0.7722183966D+00  0.1145851947D+01  0.7408951398D+00
 SP   1 1.00       0.000000000000
      0.2120314975D+00  0.1000000000D+01  0.1000000000D+01
 D   1 1.00       0.000000000000
      0.8000000000D+00  0.1000000000D+01
 ****
     13 0
 S   6 1.00       0.000000000000
      0.5484671660D+04  0.1831074430D-02
      0.8252349460D+03  0.1395017220D-01
      0.1880469580D+03  0.6844507810D-01
      0.5296450000D+02  0.2327143360D+00
      0.1689757040D+02  0.4701928980D+00
      0.5799635340D+01  0.3585208530D+00
 SP   3 1.00       0.000000000000
      0.1553961625D+02 -0.1107775495D+00  0.7087426823D-01
      0.3599933586D+01 -0.1480262627D+00  0.3397528391D+00
      0.1013761750D+01  0.1130767015D+01  0.7271585773D+00
 SP   1 1.00       0.000000000000
      0.2700058226D+00  0.1000000000D+01  0.1000000000D+01
 D   1 1.00       0.000000000000
      0.8000000000D+00  0.1000000000D+01
 ****
     14 0
 S   6 1.00       0.000000000000
      0.5484671660D+04  0.1831074430D-02
      0.8252349460D+03  0.1395017220D-01
      0.1880469580D+03  0.6844507810D-01
      0.5296450000D+02  0.2327143360D+00
      0.1689757040D+02  0.4701928980D+00
      0.5799635340D+01  0.3585208530D+00
 SP   3 1.00       0.000000000000
      0.1553961625D+02 -0.1107775495D+00  0.7087426823D-01
      0.3599933586D+01 -0.1480262627D+00  0.3397528391D+00
      0.1013761750D+01  0.1130767015D+01  0.7271585773D+00
 SP   1 1.00       0.000000000000
      0.2700058226D+00  0.1000000000D+01  0.1000000000D+01
 D   1 1.00       0.000000000000
      0.8000000000D+00  0.1000000000D+01
 ****
     15 0
 S   6 1.00       0.000000000000
      0.5484671660D+04  0.1831074430D-02
      0.8252349460D+03  0.1395017220D-01
      0.1880469580D+03  0.6844507810D-01
      0.5296450000D+02  0.2327143360D+00
      0.1689757040D+02  0.4701928980D+00
      0.5799635340D+01  0.3585208530D+00
 SP   3 1.00       0.000000000000
      0.1553961625D+02 -0.1107775495D+00  0.7087426823D-01
      0.3599933586D+01 -0.1480262627D+00  0.3397528391D+00
      0.1013761750D+01  0.1130767015D+01  0.7271585773D+00
 SP   1 1.00       0.000000000000
      0.2700058226D+00  0.1000000000D+01  0.1000000000D+01
 D   1 1.00       0.000000000000
      0.8000000000D+00  0.1000000000D+01
 ****
     16 0
 S   3 1.00       0.000000000000
      0.1873113696D+02  0.3349460434D-01
      0.2825394365D+01  0.2347269535D+00
      0.6401216923D+00  0.8137573261D+00
 S   1 1.00       0.000000000000
      0.1612777588D+00  0.1000000000D+01
 ****

 There are   175 symmetry adapted basis functions of A   symmetry.
 Integral buffers will be    131072 words long.
 Raffenetti 1 integral format.
 Two-electron integral symmetry is turned on.
   175 basis functions,   328 primitive gaussians,   175 cartesian basis functions
    39 alpha electrons       39 beta electrons
       nuclear repulsion energy       557.7065816172 Hartrees.
 NAtoms=   16 NActive=   16 NUniq=   16 SFac= 1.00D+00 NAtFMM=   50 NAOKFM=F Big=F
 One-electron integrals computed using PRISM.
 NBasis=   175 RedAO= T  NBF=   175
 NBsUse=   175 1.00D-06 NBFU=   175
 Harris functional with IExCor=  205 diagonalized for initial guess.
 ExpMin= 1.61D-01 ExpMax= 5.48D+03 ExpMxC= 8.25D+02 IAcc=1 IRadAn=         1 AccDes= 0.00D+00
 HarFok:  IExCor=  205 AccDes= 0.00D+00 IRadAn=         1 IDoV= 1
 ScaDFX=  1.000000  1.000000  1.000000  1.000000
 FoFCou: FMM=F IPFlag=           0 FMFlag=      100000 FMFlg1=           0
         NFxFlg=           0 DoJE=T BraDBF=F KetDBF=T FulRan=T
         Omega=  0.000000  0.000000  1.000000  0.000000  0.000000 ICntrl=     500 IOpCl=  0
         NMat0=    1 NMatS0=    1 NMatT0=    0 NMatD0=    1 NMtDS0=    0 NMtDT0=    0
         I1Cent=           4 NGrid=           0.
 Petite list used in FoFCou.
 Initial guess orbital symmetries:
       Occupied  (A) (A) (A) (A) (A) (A) (A) (A) (A) (A) (A) (A)
                 (A) (A) (A) (A) (A) (A) (A) (A) (A) (A) (A) (A)
                 (A) (A) (A) (A) (A) (A) (A) (A) (A) (A) (A) (A)
                 (A) (A) (A)
       Virtual   (A) (A) (A) (A) (A) (A) (A) (A) (A) (A) (A) (A)
                 (A) (A) (A) (A) (A) (A) (A) (A) (A) (A) (A) (A)
                 (A) (A) (A) (A) (A) (A) (A) (A) (A) (A) (A) (A)
                 (A) (A) (A) (A) (A) (A) (A) (A) (A) (A) (A) (A)
                 (A) (A) (A) (A) (A) (A) (A) (A) (A) (A) (A) (A)
                 (A) (A) (A) (A) (A) (A) (A) (A) (A) (A) (A) (A)
                 (A) (A) (A) (A) (A) (A) (A) (A) (A) (A) (A) (A)
                 (A) (A) (A) (A) (A) (A) (A) (A) (A) (A) (A) (A)
                 (A) (A) (A) (A) (A) (A) (A) (A) (A) (A) (A) (A)
                 (A) (A) (A) (A) (A) (A) (A) (A) (A) (A) (A) (A)
                 (A) (A) (A) (A) (A) (A) (A) (A) (A) (A) (A) (A)
                 (A) (A) (A) (A)
 The electronic state of the initial guess is 1-A.
 Requested convergence on RMS density matrix=1.00D-08 within 600 cycles.
 Requested convergence on MAX density matrix=1.00D-06.
 Requested convergence on             energy=1.00D-06.
 No special actions if energy rises.
 Keep R1 ints in memory in canonical form, NReq=121771872.
 SCF Done:  E(RHF) =  -546.897741124     A.U. after   15 cycles
             Convg  =    0.7806D-08             -V/T =  2.0028

 **********************************************************************

            Population analysis using the SCF density.

 **********************************************************************

 Orbital symmetries:
       Occupied  (A) (A) (A) (A) (A) (A) (A) (A) (A) (A) (A) (A)
                 (A) (A) (A) (A) (A) (A) (A) (A) (A) (A) (A) (A)
                 (A) (A) (A) (A) (A) (A) (A) (A) (A) (A) (A) (A)
                 (A) (A) (A)
       Virtual   (A) (A) (A) (A) (A) (A) (A) (A) (A) (A) (A) (A)
                 (A) (A) (A) (A) (A) (A) (A) (A) (A) (A) (A) (A)
                 (A) (A) (A) (A) (A) (A) (A) (A) (A) (A) (A) (A)
                 (A) (A) (A) (A) (A) (A) (A) (A) (A) (A) (A) (A)
                 (A) (A) (A) (A) (A) (A) (A) (A) (A) (A) (A) (A)
                 (A) (A) (A) (A) (A) (A) (A) (A) (A) (A) (A) (A)
                 (A) (A) (A) (A) (A) (A) (A) (A) (A) (A) (A) (A)
                 (A) (A) (A) (A) (A) (A) (A) (A) (A) (A) (A) (A)
                 (A) (A) (A) (A) (A) (A) (A) (A) (A) (A) (A) (A)
                 (A) (A) (A) (A) (A) (A) (A) (A) (A) (A) (A) (A)
                 (A) (A) (A) (A) (A) (A) (A) (A) (A) (A) (A) (A)
                 (A) (A) (A) (A)
 The electronic state is 1-A.
 Alpha  occ. eigenvalues --  -20.61938 -20.61920 -20.58556 -15.87116 -11.35900
 Alpha  occ. eigenvalues --  -11.32580 -11.29990 -11.29762 -11.29070 -11.28240
 Alpha  occ. eigenvalues --  -11.27994  -1.61675  -1.41334  -1.41032  -1.21682
 Alpha  occ. eigenvalues --   -1.10993  -1.07965  -0.97331  -0.92171  -0.86357
 Alpha  occ. eigenvalues --   -0.81499  -0.76935  -0.73759  -0.72810  -0.72192
 Alpha  occ. eigenvalues --   -0.70085  -0.67022  -0.64490  -0.64058  -0.57687
 Alpha  occ. eigenvalues --   -0.57044  -0.55788  -0.52863  -0.50240  -0.50057
 Alpha  occ. eigenvalues --   -0.46042  -0.44599  -0.38863  -0.38212
 Alpha virt. eigenvalues --    0.03439   0.06366   0.13840   0.20536   0.21857
 Alpha virt. eigenvalues --    0.23984   0.28953   0.30128   0.30924   0.34426
 Alpha virt. eigenvalues --    0.35023   0.39092   0.41619   0.43711   0.46979
 Alpha virt. eigenvalues --    0.48809   0.50546   0.56015   0.62440   0.65233
 Alpha virt. eigenvalues --    0.67693   0.69355   0.69493   0.73079   0.73339
 Alpha virt. eigenvalues --    0.76949   0.77459   0.78774   0.80495   0.82022
 Alpha virt. eigenvalues --    0.82490   0.83862   0.86260   0.89667   0.92511
 Alpha virt. eigenvalues --    0.95548   0.97958   1.00015   1.00257   1.02657
 Alpha virt. eigenvalues --    1.03831   1.04477   1.05537   1.07010   1.07632
 Alpha virt. eigenvalues --    1.10037   1.15513   1.15975   1.17838   1.20362
 Alpha virt. eigenvalues --    1.22346   1.22426   1.26863   1.27675   1.28390
 Alpha virt. eigenvalues --    1.28488   1.32160   1.34056   1.39130   1.43872
 Alpha virt. eigenvalues --    1.44973   1.46893   1.50841   1.50875   1.53681
 Alpha virt. eigenvalues --    1.54594   1.62344   1.64161   1.68371   1.68883
 Alpha virt. eigenvalues --    1.70618   1.71229   1.71621   1.72983   1.79815
 Alpha virt. eigenvalues --    1.86329   1.96717   1.97347   1.97403   2.01815
 Alpha virt. eigenvalues --    2.02091   2.04842   2.06820   2.08968   2.11151
 Alpha virt. eigenvalues --    2.12577   2.15063   2.20396   2.23048   2.24657
 Alpha virt. eigenvalues --    2.26059   2.28783   2.33277   2.34284   2.37164
 Alpha virt. eigenvalues --    2.42403   2.43871   2.44847   2.46216   2.49666
 Alpha virt. eigenvalues --    2.55761   2.57414   2.60550   2.64551   2.68250
 Alpha virt. eigenvalues --    2.70100   2.82970   2.85789   2.87962   2.88523
 Alpha virt. eigenvalues --    2.94574   2.95783   2.95824   3.04628   3.06078
 Alpha virt. eigenvalues --    3.12126   3.13026   3.23347   3.24817   3.25568
 Alpha virt. eigenvalues --    3.32203   3.39316   3.44755   3.55620   3.78326
 Alpha virt. eigenvalues --    4.12993   4.28927   4.30630   4.38389   4.47722
 Alpha virt. eigenvalues --    4.49014   4.51897   4.62036   4.73563   4.80599
 Alpha virt. eigenvalues --    5.11515
     Molecular Orbital Coefficients:
                           1         2         3         4         5
                           O         O         O         O         O
     Eigenvalues --   -20.61938 -20.61920 -20.58556 -15.87116 -11.35900
   1 1   C  1S          0.00000   0.00000   0.00000  -0.00001   0.00001
   2        2S          0.00005   0.00000   0.00000  -0.00007   0.00002
   3        2PX         0.00001  -0.00001   0.00000  -0.00001   0.00001
   4        2PY         0.00001  -0.00002   0.00000  -0.00001  -0.00001
   5        2PZ         0.00000   0.00000   0.00000   0.00000   0.00000
   6        3S         -0.00058   0.00026   0.00002   0.00121  -0.00024
   7        3PX        -0.00004  -0.00009   0.00009   0.00128  -0.00117
   8        3PY         0.00066  -0.00005  -0.00005  -0.00036   0.00017
   9        3PZ         0.00000   0.00000   0.00000   0.00000   0.00000
  10        4XX        -0.00001  -0.00001   0.00000   0.00000   0.00002
  11        4YY        -0.00006   0.00001   0.00000   0.00000   0.00001
  12        4ZZ         0.00001   0.00000   0.00000  -0.00004   0.00000
  13        4XY         0.00000   0.00000   0.00000  -0.00006   0.00003
  14        4XZ         0.00000   0.00000   0.00000   0.00000   0.00000
  15        4YZ         0.00000   0.00000   0.00000   0.00000   0.00000
  16 2   C  1S          0.00000   0.00001   0.00000  -0.00001   0.00000
  17        2S          0.00000   0.00003   0.00001  -0.00002  -0.00009
  18        2PX        -0.00001   0.00000   0.00000   0.00003   0.00000
  19        2PY         0.00000  -0.00001   0.00000   0.00004  -0.00004
  20        2PZ         0.00000   0.00000   0.00000   0.00000   0.00000
  21        3S          0.00000  -0.00011  -0.00022  -0.00088   0.00233
  22        3PX         0.00018  -0.00001  -0.00009   0.00025   0.00040
  23        3PY        -0.00018   0.00011   0.00005   0.00012  -0.00079
  24        3PZ         0.00000   0.00000   0.00000   0.00000   0.00000
  25        4XX         0.00000   0.00000   0.00000  -0.00001   0.00000
  26        4YY         0.00001   0.00000   0.00000   0.00000   0.00001
  27        4ZZ         0.00000   0.00001   0.00001  -0.00002  -0.00002
  28        4XY         0.00000   0.00000   0.00000   0.00000  -0.00002
  29        4XZ         0.00000   0.00000   0.00000   0.00000   0.00000
  30        4YZ         0.00000   0.00000   0.00000   0.00000   0.00000
  31 3   C  1S          0.00000   0.00000   0.00000  -0.00001  -0.00001
  32        2S          0.00000   0.00000  -0.00001  -0.00002  -0.00009
  33        2PX         0.00000   0.00000   0.00000   0.00003  -0.00008
  34        2PY        -0.00001   0.00001   0.00000   0.00002   0.00001
  35        2PZ         0.00000   0.00000   0.00000   0.00000   0.00000
  36        3S         -0.00009  -0.00005   0.00015   0.00000  -0.00041
  37        3PX         0.00000  -0.00004  -0.00003  -0.00017   0.00173
  38        3PY        -0.00009   0.00008   0.00019  -0.00002  -0.00098
  39        3PZ         0.00000   0.00000   0.00000   0.00000   0.00000
  40        4XX         0.00000   0.00000   0.00000  -0.00001   0.00000
  41        4YY         0.00000   0.00000  -0.00003   0.00000   0.00014
  42        4ZZ         0.00000   0.00000   0.00000  -0.00002  -0.00003
  43        4XY         0.00001   0.00000  -0.00002  -0.00001   0.00002
  44        4XZ         0.00000   0.00000   0.00000   0.00000   0.00000
  45        4YZ         0.00000   0.00000   0.00000   0.00000   0.00000
  46 4   C  1S          0.00000   0.00000   0.00000   0.00000   0.00448
  47        2S          0.00002   0.00001   0.00000   0.00001   0.00025
  48        2PX        -0.00001  -0.00001  -0.00002   0.00006   0.00002
  49        2PY         0.00001  -0.00001   0.00000  -0.00003   0.00011
  50        2PZ         0.00000   0.00000   0.00000   0.00000   0.00000
  51        3S         -0.00012  -0.00002  -0.00010  -0.00119   0.00398
  52        3PX         0.00025  -0.00004   0.00008   0.00006  -0.00254
  53        3PY        -0.00013   0.00021   0.00013   0.00051  -0.00155
  54        3PZ         0.00000   0.00000   0.00000   0.00000   0.00000
  55        4XX         0.00000   0.00001  -0.00007  -0.00002  -0.00045
  56        4YY         0.00000   0.00000   0.00007   0.00000  -0.00048
  57        4ZZ         0.00001   0.00001  -0.00002  -0.00001  -0.00015
  58        4XY         0.00000   0.00000  -0.00002   0.00001   0.00025
  59        4XZ         0.00000   0.00000   0.00000   0.00000   0.00000
  60        4YZ         0.00000   0.00000   0.00000   0.00000   0.00000
  61 5   C  1S          0.00000   0.00000   0.00000  -0.00001   0.00001
  62        2S         -0.00002   0.00005   0.00000  -0.00008   0.00014
  63        2PX        -0.00002   0.00001   0.00002  -0.00001  -0.00014
  64        2PY         0.00000   0.00000   0.00000   0.00000   0.00010
  65        2PZ         0.00000   0.00000   0.00000   0.00000   0.00000
  66        3S          0.00059  -0.00055   0.00031   0.00132  -0.00594
  67        3PX        -0.00019   0.00042  -0.00017   0.00071   0.00083
  68        3PY         0.00021  -0.00051   0.00023   0.00110  -0.00320
  69        3PZ         0.00000   0.00000   0.00000   0.00000   0.00000
  70        4XX         0.00001  -0.00003   0.00000  -0.00004  -0.00001
  71        4YY         0.00001  -0.00003   0.00001   0.00005   0.00001
  72        4ZZ         0.00000   0.00001   0.00000  -0.00004   0.00002
  73        4XY        -0.00002   0.00002   0.00001  -0.00001   0.00008
  74        4XZ         0.00000   0.00000   0.00000   0.00000   0.00000
  75        4YZ         0.00000   0.00000   0.00000   0.00000   0.00000
  76 6   C  1S          0.00000  -0.00001   0.00000   0.00000  -0.00003
  77        2S         -0.00001  -0.00002   0.00002   0.00014  -0.00023
  78        2PX         0.00005   0.00003   0.00000  -0.00014   0.00001
  79        2PY        -0.00002   0.00005   0.00000  -0.00006   0.00001
  80        2PZ         0.00000   0.00000   0.00000   0.00000   0.00000
  81        3S          0.00003   0.00019  -0.00034   0.00127   0.00374
  82        3PX         0.00003   0.00083  -0.00021  -0.00331   0.00278
  83        3PY         0.00097  -0.00036   0.00011  -0.00143  -0.00156
  84        3PZ         0.00000   0.00000   0.00000   0.00000   0.00000
  85        4XX        -0.00011   0.00000   0.00000   0.00007   0.00005
  86        4YY         0.00007  -0.00004   0.00000  -0.00004  -0.00001
  87        4ZZ        -0.00002  -0.00003   0.00001  -0.00007  -0.00007
  88        4XY         0.00005  -0.00009   0.00000   0.00007  -0.00005
  89        4XZ         0.00000   0.00000   0.00000   0.00000   0.00000
  90        4YZ         0.00000   0.00000   0.00000   0.00000   0.00000
  91 7   H  1S          0.00002   0.00000   0.00001   0.00006  -0.00008
  92        2S         -0.00029  -0.00007   0.00004   0.00039  -0.00035
  93 8   H  1S          0.00002   0.00000   0.00000   0.00002  -0.00004
  94        2S          0.00006  -0.00004   0.00001   0.00005   0.00012
  95 9   H  1S          0.00001   0.00000   0.00002   0.00001  -0.00015
  96        2S          0.00002   0.00000  -0.00014   0.00007  -0.00042
  97 10  C  1S          0.00000   0.00000  -0.00001  -0.00001   0.99576
  98        2S          0.00000   0.00001   0.00043  -0.00004   0.02673
  99        2PX         0.00000   0.00000  -0.00011  -0.00001   0.00048
 100        2PY         0.00000   0.00000  -0.00005   0.00001   0.00042
 101        2PZ         0.00000   0.00000   0.00000   0.00000   0.00000
 102        3S         -0.00018   0.00008  -0.00038   0.00053  -0.00619
 103        3PX        -0.00001   0.00004  -0.00069  -0.00024   0.00359
 104        3PY        -0.00011   0.00007  -0.00022   0.00014   0.00183
 105        3PZ         0.00000   0.00000   0.00000   0.00000   0.00002
 106        4XX        -0.00001   0.00001  -0.00075   0.00002  -0.00086
 107        4YY         0.00000   0.00000  -0.00014   0.00000  -0.00174
 108        4ZZ         0.00000   0.00001  -0.00003  -0.00002  -0.00247
 109        4XY         0.00000   0.00000  -0.00028  -0.00001   0.00029
 110        4XZ         0.00000   0.00000   0.00000   0.00000   0.00001
 111        4YZ         0.00000   0.00000   0.00000   0.00000   0.00000
 112 11  H  1S          0.00000   0.00002   0.00002   0.00006  -0.00013
 113        2S          0.00005  -0.00031   0.00004   0.00033  -0.00079
 114 12  N  1S          0.00003   0.00003   0.00000   0.99528  -0.00001
 115        2S          0.00030   0.00041   0.00000   0.02425  -0.00002
 116        2PX        -0.00010  -0.00001   0.00000  -0.00034   0.00001
 117        2PY         0.00011  -0.00012   0.00000  -0.00015  -0.00003
 118        2PZ         0.00000   0.00000   0.00000   0.00000   0.00000
 119        3S          0.00000   0.00001  -0.00001  -0.00391   0.00033
 120        3PX         0.00075   0.00039   0.00002  -0.00179  -0.00043
 121        3PY        -0.00048   0.00076  -0.00007  -0.00080   0.00121
 122        3PZ         0.00000   0.00000   0.00000   0.00000   0.00000
 123        4XX        -0.00046  -0.00005   0.00000  -0.00298   0.00000
 124        4YY        -0.00028  -0.00095   0.00000  -0.00259  -0.00002
 125        4ZZ         0.00000   0.00000   0.00000  -0.00329  -0.00001
 126        4XY         0.00052   0.00009   0.00000  -0.00024  -0.00001
 127        4XZ         0.00000   0.00000   0.00000   0.00000   0.00000
 128        4YZ         0.00000   0.00000   0.00000   0.00000   0.00000
 129 13  O  1S          0.98387   0.14658   0.00000  -0.00019   0.00001
 130        2S          0.02076   0.00304   0.00000   0.00020   0.00004
 131        2PX         0.00141   0.00024   0.00000   0.00011  -0.00002
 132        2PY        -0.00111  -0.00012   0.00000  -0.00011   0.00000
 133        2PZ        -0.00001   0.00000   0.00000   0.00000   0.00000
 134        3S          0.00432   0.00074   0.00002   0.00000  -0.00068
 135        3PX        -0.00010   0.00009   0.00001   0.00000  -0.00020
 136        3PY         0.00007  -0.00007  -0.00001   0.00025   0.00017
 137        3PZ         0.00000   0.00000   0.00000   0.00000   0.00000
 138        4XX        -0.00367  -0.00040   0.00000  -0.00016   0.00001
 139        4YY        -0.00368  -0.00065   0.00000  -0.00015   0.00002
 140        4ZZ        -0.00397  -0.00069   0.00000   0.00014   0.00001
 141        4XY        -0.00007  -0.00004   0.00000   0.00017   0.00003
 142        4XZ         0.00000   0.00000   0.00000   0.00000   0.00000
 143        4YZ         0.00000   0.00000   0.00000   0.00000   0.00000
 144 14  O  1S         -0.14659   0.98387   0.00000  -0.00019  -0.00002
 145        2S         -0.00315   0.02074   0.00001   0.00020  -0.00010
 146        2PX         0.00002   0.00017   0.00000  -0.00001   0.00000
 147        2PY        -0.00027   0.00178   0.00000   0.00016   0.00001
 148        2PZ         0.00000   0.00000   0.00000   0.00000   0.00000
 149        3S         -0.00055   0.00435  -0.00007  -0.00002   0.00094
 150        3PX         0.00002  -0.00001  -0.00001   0.00019   0.00011
 151        3PY         0.00015  -0.00009  -0.00002  -0.00018   0.00031
 152        3PZ         0.00000   0.00000   0.00000   0.00000   0.00000
 153        4XX         0.00055  -0.00374   0.00001  -0.00001  -0.00008
 154        4YY         0.00059  -0.00360   0.00000  -0.00030  -0.00003
 155        4ZZ         0.00049  -0.00400   0.00001   0.00014  -0.00006
 156        4XY         0.00014   0.00005   0.00000   0.00000   0.00002
 157        4XZ         0.00000   0.00000   0.00000   0.00000   0.00000
 158        4YZ         0.00000   0.00000   0.00000   0.00000   0.00000
 159 15  O  1S          0.00000   0.00000   0.99468   0.00000  -0.00029
 160        2S         -0.00001   0.00002   0.02094   0.00001   0.00073
 161        2PX         0.00000   0.00000  -0.00151   0.00000  -0.00029
 162        2PY         0.00000   0.00000  -0.00049   0.00001  -0.00010
 163        2PZ         0.00000   0.00000  -0.00001   0.00000   0.00000
 164        3S          0.00009  -0.00011   0.00480  -0.00004  -0.00392
 165        3PX        -0.00003   0.00003  -0.00007   0.00005   0.00187
 166        3PY         0.00000   0.00000  -0.00003  -0.00004   0.00066
 167        3PZ         0.00000   0.00000   0.00000   0.00000   0.00001
 168        4XX         0.00000   0.00000  -0.00361  -0.00001   0.00007
 169        4YY        -0.00001   0.00001  -0.00388   0.00001   0.00021
 170        4ZZ         0.00000   0.00001  -0.00423   0.00000   0.00046
 171        4XY         0.00000   0.00000   0.00013   0.00000  -0.00009
 172        4XZ         0.00000   0.00000   0.00000   0.00000   0.00000
 173        4YZ         0.00000   0.00000   0.00000   0.00000   0.00000
 174 16  H  1S          0.00000   0.00000  -0.00004  -0.00002   0.00005
 175        2S         -0.00003   0.00004  -0.00013  -0.00001   0.00253
                           6         7         8         9        10
                           O         O         O         O         O
     Eigenvalues --   -11.32580 -11.29990 -11.29762 -11.29070 -11.28240
   1 1   C  1S          0.02114  -0.00872   0.99485  -0.00442   0.00130
   2        2S          0.00022  -0.00025   0.02780  -0.00012  -0.00007
   3        2PX        -0.00004  -0.00002   0.00027  -0.00002  -0.00001
   4        2PY         0.00012   0.00001  -0.00044   0.00001   0.00003
   5        2PZ         0.00000   0.00000   0.00000   0.00000   0.00000
   6        3S          0.00693  -0.00254  -0.01556  -0.00267   0.00171
   7        3PX         0.00261  -0.00100  -0.00263  -0.00135   0.00114
   8        3PY        -0.00274   0.00097   0.00234   0.00092  -0.00047
   9        3PZ         0.00000   0.00000   0.00000   0.00000   0.00000
  10        4XX        -0.00032   0.00008  -0.00162   0.00011  -0.00001
  11        4YY        -0.00042   0.00015  -0.00155   0.00002  -0.00003
  12        4ZZ        -0.00022   0.00004  -0.00238   0.00003  -0.00005
  13        4XY        -0.00014  -0.00002   0.00014   0.00000   0.00000
  14        4XZ         0.00000   0.00000   0.00000   0.00000   0.00000
  15        4YZ         0.00000   0.00000   0.00000   0.00000   0.00000
  16 2   C  1S          0.00022  -0.00073   0.03317   0.05580  -0.01824
  17        2S          0.00001  -0.00016   0.00065   0.00128  -0.00050
  18        2PX         0.00003   0.00001   0.00014  -0.00013   0.00001
  19        2PY         0.00004   0.00004   0.00011   0.00013   0.00000
  20        2PZ         0.00000   0.00000   0.00000   0.00000   0.00000
  21        3S         -0.00356   0.00223   0.00639   0.00615  -0.00238
  22        3PX         0.00031  -0.00005  -0.00139   0.00084   0.00024
  23        3PY         0.00157  -0.00139  -0.00273  -0.00283   0.00130
  24        3PZ         0.00000   0.00000   0.00000   0.00000   0.00000
  25        4XX         0.00008   0.00000  -0.00056  -0.00056   0.00013
  26        4YY         0.00008  -0.00002  -0.00036  -0.00042   0.00016
  27        4ZZ         0.00001  -0.00006  -0.00023  -0.00027   0.00008
  28        4XY         0.00006  -0.00001  -0.00007   0.00011  -0.00006
  29        4XZ         0.00000   0.00000   0.00000   0.00000   0.00000
  30        4YZ         0.00000   0.00000   0.00000   0.00000   0.00000
  31 3   C  1S         -0.00033   0.00169   0.00263   0.99170  -0.06810
  32        2S         -0.00018   0.00005   0.00009   0.02763  -0.00208
  33        2PX         0.00005   0.00001   0.00002  -0.00034   0.00009
  34        2PY         0.00004   0.00003   0.00000  -0.00019   0.00018
  35        2PZ         0.00000   0.00000   0.00000   0.00000   0.00000
  36        3S          0.00205  -0.00275  -0.00304  -0.01505   0.00671
  37        3PX        -0.00162   0.00142   0.00153   0.00316  -0.00148
  38        3PY        -0.00033   0.00057   0.00063   0.00133  -0.00216
  39        3PZ         0.00000   0.00000   0.00000   0.00000   0.00000
  40        4XX        -0.00001   0.00005   0.00011  -0.00169  -0.00017
  41        4YY        -0.00001   0.00009   0.00002  -0.00155  -0.00043
  42        4ZZ        -0.00008   0.00001   0.00002  -0.00237   0.00004
  43        4XY        -0.00001   0.00004  -0.00003  -0.00015   0.00000
  44        4XZ         0.00000   0.00000   0.00000   0.00000   0.00000
  45        4YZ         0.00000   0.00000   0.00000   0.00000   0.00000
  46 4   C  1S          0.00027   0.03376  -0.00026   0.06840   0.99262
  47        2S          0.00005   0.00070  -0.00015   0.00171   0.02799
  48        2PX         0.00002   0.00018   0.00006   0.00002  -0.00013
  49        2PY        -0.00005   0.00002  -0.00004  -0.00019  -0.00001
  50        2PZ         0.00000   0.00000   0.00000   0.00000   0.00000
  51        3S         -0.00393   0.00617   0.00223   0.00564  -0.01652
  52        3PX         0.00171  -0.00303  -0.00140  -0.00214   0.00121
  53        3PY         0.00012   0.00090   0.00124   0.00274  -0.00103
  54        3PZ         0.00000   0.00000   0.00000   0.00000   0.00000
  55        4XX         0.00010  -0.00052  -0.00003  -0.00043  -0.00154
  56        4YY         0.00004  -0.00043   0.00000  -0.00064  -0.00147
  57        4ZZ         0.00003  -0.00022  -0.00006  -0.00030  -0.00226
  58        4XY         0.00001  -0.00010   0.00001  -0.00006   0.00011
  59        4XZ         0.00000   0.00000   0.00000   0.00000   0.00000
  60        4YZ         0.00000   0.00000   0.00000   0.00000   0.00000
  61 5   C  1S          0.02319   0.99479   0.00829  -0.00400  -0.03413
  62        2S          0.00021   0.02785   0.00023  -0.00010  -0.00116
  63        2PX         0.00008  -0.00011  -0.00001  -0.00002  -0.00019
  64        2PY        -0.00012   0.00047  -0.00001  -0.00002  -0.00013
  65        2PZ         0.00000   0.00000   0.00000   0.00000   0.00000
  66        3S          0.00808  -0.01557  -0.00297  -0.00284   0.00673
  67        3PX        -0.00009  -0.00014   0.00011  -0.00036   0.00152
  68        3PY         0.00391  -0.00347  -0.00164  -0.00184   0.00197
  69        3PZ         0.00000   0.00000   0.00000   0.00000   0.00000
  70        4XX        -0.00046  -0.00147   0.00008   0.00006  -0.00050
  71        4YY        -0.00027  -0.00172   0.00009   0.00005  -0.00028
  72        4ZZ        -0.00025  -0.00238   0.00000   0.00003  -0.00005
  73        4XY         0.00004  -0.00005  -0.00005   0.00004  -0.00009
  74        4XZ         0.00000   0.00000   0.00000   0.00000   0.00000
  75        4YZ         0.00000   0.00000   0.00000   0.00000   0.00000
  76 6   C  1S          0.99514  -0.02360  -0.02193   0.00043   0.00054
  77        2S          0.02762  -0.00090  -0.00085  -0.00016   0.00000
  78        2PX        -0.00068  -0.00017  -0.00005  -0.00004   0.00003
  79        2PY        -0.00033   0.00010  -0.00019  -0.00002  -0.00003
  80        2PZ         0.00000   0.00000   0.00000   0.00000   0.00000
  81        3S         -0.01316   0.00738   0.00770   0.00237  -0.00222
  82        3PX        -0.00572   0.00274   0.00184   0.00174  -0.00135
  83        3PY        -0.00212  -0.00018   0.00205   0.00079  -0.00002
  84        3PZ         0.00000   0.00000   0.00000   0.00000   0.00000
  85        4XX        -0.00152  -0.00040  -0.00029  -0.00002   0.00016
  86        4YY        -0.00151  -0.00042  -0.00056   0.00001   0.00008
  87        4ZZ        -0.00228  -0.00010  -0.00010  -0.00006   0.00003
  88        4XY         0.00000   0.00015   0.00002  -0.00001  -0.00004
  89        4XZ         0.00000   0.00000   0.00000   0.00000   0.00000
  90        4YZ         0.00000   0.00000   0.00000   0.00000   0.00000
  91 7   H  1S          0.00007  -0.00001  -0.00021  -0.00006   0.00005
  92        2S          0.00081  -0.00025   0.00110  -0.00032   0.00031
  93 8   H  1S         -0.00002   0.00005   0.00001  -0.00001  -0.00003
  94        2S         -0.00019   0.00034   0.00053   0.00052  -0.00024
  95 9   H  1S          0.00006  -0.00003  -0.00005  -0.00023  -0.00001
  96        2S          0.00047  -0.00028  -0.00029   0.00107   0.00011
  97 10  C  1S         -0.00003  -0.00015   0.00000  -0.00033  -0.00482
  98        2S         -0.00008  -0.00013  -0.00001  -0.00015  -0.00001
  99        2PX         0.00000   0.00000  -0.00002  -0.00002   0.00007
 100        2PY         0.00000   0.00003   0.00002  -0.00003  -0.00009
 101        2PZ         0.00000   0.00000   0.00000   0.00000   0.00000
 102        3S          0.00019   0.00065   0.00073   0.00111   0.00337
 103        3PX        -0.00053  -0.00035  -0.00021  -0.00032  -0.00075
 104        3PY        -0.00012  -0.00008   0.00016   0.00057   0.00102
 105        3PZ         0.00000   0.00000   0.00000   0.00000   0.00000
 106        4XX         0.00001   0.00009   0.00002   0.00001  -0.00053
 107        4YY        -0.00004   0.00001   0.00001   0.00006  -0.00036
 108        4ZZ        -0.00003  -0.00002   0.00000  -0.00004  -0.00012
 109        4XY         0.00000  -0.00002   0.00000  -0.00001   0.00023
 110        4XZ         0.00000   0.00000   0.00000   0.00000   0.00000
 111        4YZ         0.00000   0.00000   0.00000   0.00000   0.00000
 112 11  H  1S          0.00006  -0.00021  -0.00003  -0.00006  -0.00002
 113        2S          0.00074   0.00114  -0.00030  -0.00044   0.00007
 114 12  N  1S         -0.00012   0.00001   0.00002  -0.00002   0.00000
 115        2S          0.00062  -0.00006  -0.00006  -0.00007   0.00002
 116        2PX         0.00018  -0.00002   0.00001   0.00000   0.00000
 117        2PY         0.00008   0.00003  -0.00003   0.00000   0.00001
 118        2PZ         0.00000   0.00000   0.00000   0.00000   0.00000
 119        3S         -0.00129  -0.00025  -0.00031   0.00083  -0.00033
 120        3PX        -0.00276   0.00005  -0.00009   0.00026   0.00006
 121        3PY        -0.00143  -0.00013   0.00014   0.00010  -0.00021
 122        3PZ         0.00000   0.00000   0.00000   0.00000   0.00000
 123        4XX        -0.00068   0.00012   0.00007  -0.00002  -0.00001
 124        4YY        -0.00025   0.00002   0.00007  -0.00002  -0.00002
 125        4ZZ         0.00022   0.00000   0.00000  -0.00004   0.00000
 126        4XY        -0.00026   0.00001   0.00006   0.00000   0.00000
 127        4XZ         0.00000   0.00000   0.00000   0.00000   0.00000
 128        4YZ         0.00000   0.00000   0.00000   0.00000   0.00000
 129 13  O  1S          0.00004  -0.00002  -0.00001   0.00000   0.00000
 130        2S          0.00008  -0.00007  -0.00005   0.00000  -0.00002
 131        2PX        -0.00002  -0.00001  -0.00003   0.00000   0.00000
 132        2PY        -0.00008   0.00000   0.00000   0.00000   0.00000
 133        2PZ         0.00000   0.00000   0.00000   0.00000   0.00000
 134        3S         -0.00091   0.00041   0.00012  -0.00003   0.00018
 135        3PX         0.00030   0.00016   0.00009  -0.00003   0.00006
 136        3PY         0.00060   0.00000  -0.00005   0.00000  -0.00005
 137        3PZ         0.00000   0.00000   0.00000   0.00000   0.00000
 138        4XX         0.00034  -0.00002   0.00000   0.00000   0.00000
 139        4YY         0.00000  -0.00007  -0.00004   0.00000  -0.00001
 140        4ZZ         0.00006  -0.00004  -0.00004   0.00000  -0.00001
 141        4XY         0.00000   0.00001   0.00000   0.00000  -0.00001
 142        4XZ         0.00000   0.00000   0.00000   0.00000   0.00000
 143        4YZ         0.00000   0.00000   0.00000   0.00000   0.00000
 144 14  O  1S          0.00004  -0.00001  -0.00002   0.00000  -0.00001
 145        2S          0.00009  -0.00004  -0.00007   0.00000  -0.00003
 146        2PX        -0.00008  -0.00002   0.00000   0.00000  -0.00001
 147        2PY         0.00004  -0.00002  -0.00001   0.00000   0.00000
 148        2PZ         0.00000   0.00000   0.00000   0.00000   0.00000
 149        3S         -0.00114   0.00011   0.00044  -0.00005   0.00009
 150        3PX         0.00065   0.00001   0.00012  -0.00002   0.00006
 151        3PY        -0.00029   0.00010   0.00013  -0.00003   0.00000
 152        3PZ         0.00000   0.00000   0.00000   0.00000   0.00000
 153        4XX         0.00017  -0.00002  -0.00004   0.00000  -0.00001
 154        4YY         0.00017  -0.00002  -0.00006   0.00000  -0.00002
 155        4ZZ         0.00006  -0.00004  -0.00004   0.00000  -0.00004
 156        4XY         0.00020   0.00002   0.00004   0.00000   0.00000
 157        4XZ         0.00000   0.00000   0.00000   0.00000   0.00000
 158        4YZ         0.00000   0.00000   0.00000   0.00000   0.00000
 159 15  O  1S         -0.00001  -0.00002   0.00000   0.00000   0.00004
 160        2S         -0.00005  -0.00008   0.00001   0.00000   0.00008
 161        2PX         0.00000   0.00002   0.00000   0.00002  -0.00003
 162        2PY         0.00001   0.00000   0.00001   0.00000  -0.00003
 163        2PZ         0.00000   0.00000   0.00000   0.00000   0.00000
 164        3S          0.00037   0.00039  -0.00008  -0.00015  -0.00081
 165        3PX        -0.00004  -0.00012   0.00004   0.00003   0.00023
 166        3PY        -0.00008   0.00006  -0.00001  -0.00010  -0.00010
 167        3PZ         0.00000   0.00000   0.00000   0.00000   0.00000
 168        4XX        -0.00004  -0.00004   0.00000   0.00001   0.00015
 169        4YY        -0.00003  -0.00006   0.00001   0.00000   0.00015
 170        4ZZ        -0.00003  -0.00005   0.00001  -0.00002   0.00002
 171        4XY         0.00001  -0.00003   0.00000   0.00001   0.00003
 172        4XZ         0.00000   0.00000   0.00000   0.00000   0.00000
 173        4YZ         0.00000   0.00000   0.00000   0.00000   0.00000
 174 16  H  1S         -0.00005  -0.00004  -0.00001   0.00001  -0.00007
 175        2S         -0.00005  -0.00019  -0.00003   0.00022  -0.00004
                          11        12        13        14        15
                           O         O         O         O         O
     Eigenvalues --   -11.27994  -1.61675  -1.41334  -1.41032  -1.21682
   1 1   C  1S         -0.03354  -0.00425  -0.00070  -0.00425  -0.08957
   2        2S         -0.00123   0.01059   0.00169   0.00826   0.17266
   3        2PX        -0.00021  -0.00395   0.00069  -0.00442   0.03790
   4        2PY        -0.00002  -0.00679  -0.00027  -0.00387  -0.04898
   5        2PZ         0.00000   0.00001   0.00000   0.00001   0.00000
   6        3S          0.00814  -0.01249  -0.00739  -0.00512   0.09637
   7        3PX         0.00307  -0.01281   0.00477   0.01053  -0.00498
   8        3PY        -0.00109   0.01039   0.00480   0.01172  -0.00127
   9        3PZ         0.00000   0.00000  -0.00001  -0.00001   0.00000
  10        4XX        -0.00042   0.00057  -0.00002   0.00066   0.00538
  11        4YY        -0.00032   0.00103  -0.00005   0.00071   0.00847
  12        4ZZ        -0.00008   0.00047  -0.00004  -0.00037  -0.00822
  13        4XY        -0.00014   0.00181  -0.00006  -0.00004   0.00136
  14        4XZ         0.00000   0.00000   0.00000   0.00000  -0.00001
  15        4YZ         0.00000   0.00000   0.00000   0.00000  -0.00001
  16 2   C  1S          0.99339  -0.00027  -0.00149  -0.00046  -0.07593
  17        2S          0.02791   0.00230   0.00255   0.00152   0.14424
  18        2PX        -0.00010  -0.00101   0.00083  -0.00072  -0.01156
  19        2PY        -0.00042  -0.00109  -0.00125  -0.00033  -0.05327
  20        2PZ         0.00000   0.00000   0.00000   0.00000   0.00003
  21        3S         -0.01649   0.00190  -0.00199  -0.00540   0.09320
  22        3PX         0.00044   0.00062   0.00154   0.00898  -0.00325
  23        3PY         0.00395   0.00311  -0.00085   0.00046  -0.00787
  24        3PZ         0.00000   0.00000   0.00000   0.00000   0.00001
  25        4XX        -0.00146  -0.00015   0.00005   0.00005   0.00711
  26        4YY        -0.00176   0.00009   0.00007   0.00004   0.00474
  27        4ZZ        -0.00232   0.00046  -0.00022   0.00012  -0.00675
  28        4XY        -0.00005  -0.00006  -0.00009  -0.00007   0.00044
  29        4XZ         0.00000   0.00000   0.00000   0.00000   0.00000
  30        4YZ         0.00000   0.00000   0.00000   0.00000  -0.00001
  31 3   C  1S         -0.05763  -0.00015  -0.00711  -0.00015  -0.07469
  32        2S         -0.00193   0.00083   0.01307   0.00012   0.14324
  33        2PX         0.00020  -0.00072   0.00233  -0.00011  -0.04724
  34        2PY        -0.00006  -0.00037  -0.00837   0.00016  -0.02370
  35        2PZ         0.00000   0.00000   0.00001   0.00000   0.00001
  36        3S          0.00843   0.00257   0.00581   0.00225   0.08383
  37        3PX        -0.00338  -0.00248  -0.00409   0.00288  -0.00341
  38        3PY        -0.00032  -0.00056  -0.00234  -0.00674  -0.00059
  39        3PZ         0.00000   0.00000  -0.00001   0.00000  -0.00001
  40        4XX        -0.00029   0.00018   0.00042  -0.00002   0.00508
  41        4YY        -0.00033   0.00006   0.00144   0.00010   0.00667
  42        4ZZ        -0.00003   0.00018  -0.00077  -0.00004  -0.00699
  43        4XY         0.00013   0.00020  -0.00023  -0.00003  -0.00086
  44        4XZ         0.00000   0.00000   0.00000   0.00000   0.00000
  45        4YZ         0.00000   0.00000   0.00000   0.00000   0.00000
  46 4   C  1S          0.01446  -0.00036  -0.02007   0.00011  -0.08519
  47        2S          0.00042   0.00191   0.03749  -0.00080   0.16201
  48        2PX         0.00002  -0.00175   0.02400   0.00129  -0.04550
  49        2PY         0.00001   0.00031  -0.00961   0.00031   0.02084
  50        2PZ         0.00000   0.00000   0.00004   0.00000   0.00001
  51        3S         -0.00336   0.00701   0.01901   0.00659   0.10578
  52        3PX         0.00068   0.01073   0.02502  -0.00914  -0.01423
  53        3PY        -0.00155  -0.00668  -0.00438  -0.00876   0.00540
  54        3PZ         0.00000   0.00000   0.00006   0.00000  -0.00001
  55        4XX         0.00006   0.00004   0.00628   0.00021   0.00610
  56        4YY         0.00012  -0.00004   0.00141  -0.00014   0.00605
  57        4ZZ         0.00000   0.00034  -0.00185  -0.00013  -0.00715
  58        4XY         0.00000  -0.00036  -0.00437  -0.00005   0.00229
  59        4XZ         0.00000   0.00000   0.00001   0.00000  -0.00001
  60        4YZ         0.00000   0.00000  -0.00001   0.00000   0.00000
  61 5   C  1S          0.00000  -0.00431  -0.00439   0.00431  -0.09572
  62        2S         -0.00007   0.01062   0.00798  -0.00805   0.18475
  63        2PX         0.00000  -0.00772   0.00580   0.00606  -0.00504
  64        2PY        -0.00004   0.00180   0.00094   0.00057   0.06215
  65        2PZ         0.00000   0.00000   0.00000   0.00001  -0.00001
  66        3S          0.00115  -0.01038   0.03461   0.00155   0.09568
  67        3PX         0.00028  -0.00053  -0.01584  -0.01805  -0.00029
  68        3PY         0.00115  -0.01351   0.02037  -0.00077  -0.00840
  69        3PZ         0.00000   0.00000  -0.00001   0.00001   0.00001
  70        4XX        -0.00006   0.00233   0.00093  -0.00071   0.00884
  71        4YY        -0.00003  -0.00069   0.00008  -0.00073   0.00590
  72        4ZZ        -0.00005   0.00043  -0.00036   0.00044  -0.00871
  73        4XY         0.00000  -0.00005  -0.00025   0.00002  -0.00150
  74        4XZ         0.00000   0.00000   0.00000   0.00000  -0.00001
  75        4YZ         0.00000   0.00000   0.00000   0.00000   0.00000
  76 6   C  1S          0.00053  -0.02538  -0.00111   0.00007  -0.11326
  77        2S          0.00001   0.04917   0.00345  -0.00012   0.22045
  78        2PX        -0.00002  -0.03887   0.00126  -0.00789   0.03557
  79        2PY         0.00002  -0.01679  -0.00082   0.01838   0.01251
  80        2PZ         0.00000   0.00002   0.00000   0.00006  -0.00002
  81        3S         -0.00313  -0.01288  -0.02104  -0.00036   0.13051
  82        3PX        -0.00062   0.06081  -0.01264  -0.01037   0.03364
  83        3PY        -0.00145   0.02624   0.01962   0.02663   0.00969
  84        3PZ         0.00000  -0.00003   0.00001   0.00001  -0.00002
  85        4XX         0.00008   0.00868  -0.00044   0.00328   0.00681
  86        4YY         0.00014  -0.00006   0.00007  -0.00331   0.00879
  87        4ZZ         0.00003  -0.00207   0.00006   0.00001  -0.00982
  88        4XY         0.00002   0.00536   0.00026  -0.00358  -0.00167
  89        4XZ         0.00000  -0.00001   0.00000  -0.00002  -0.00001
  90        4YZ         0.00000  -0.00001   0.00000  -0.00001  -0.00001
  91 7   H  1S          0.00001   0.00219   0.00038   0.00480   0.03239
  92        2S          0.00038  -0.00503   0.00093   0.00168  -0.00264
  93 8   H  1S         -0.00023  -0.00006   0.00051   0.00032   0.02636
  94        2S          0.00102  -0.00260   0.00047  -0.00038   0.00168
  95 9   H  1S          0.00002   0.00018   0.00452   0.00003   0.02590
  96        2S          0.00037   0.00042   0.00469  -0.00023  -0.00039
  97 10  C  1S         -0.00009   0.00010  -0.11441  -0.00217  -0.01151
  98        2S         -0.00002   0.00111   0.21844   0.00384   0.02406
  99        2PX        -0.00001   0.00001   0.16276   0.00349  -0.04787
 100        2PY        -0.00001  -0.00009   0.06292   0.00115   0.01125
 101        2PZ         0.00000   0.00000   0.00073   0.00001  -0.00011
 102        3S         -0.00003  -0.01125   0.05308   0.00102   0.01910
 103        3PX         0.00027   0.00505  -0.02225  -0.00039  -0.00536
 104        3PY         0.00030  -0.00519  -0.02466   0.00168   0.00446
 105        3PZ         0.00000   0.00000  -0.00014   0.00000  -0.00001
 106        4XX        -0.00003  -0.00012   0.02553   0.00028   0.00079
 107        4YY         0.00000  -0.00008  -0.00989  -0.00009   0.00288
 108        4ZZ        -0.00001   0.00030  -0.01714  -0.00039  -0.00085
 109        4XY        -0.00001   0.00019   0.01794   0.00031  -0.00525
 110        4XZ         0.00000   0.00000   0.00022   0.00000  -0.00001
 111        4YZ         0.00000   0.00000   0.00009   0.00000   0.00000
 112 11  H  1S          0.00006   0.00224   0.00252  -0.00473   0.03546
 113        2S          0.00035  -0.00344   0.00484  -0.00220  -0.00385
 114 12  N  1S         -0.00001  -0.15873   0.00002   0.00002  -0.01479
 115        2S         -0.00003   0.34971  -0.00059  -0.00011   0.03093
 116        2PX         0.00001  -0.07705   0.00279  -0.12154   0.10122
 117        2PY        -0.00001  -0.03323  -0.00494   0.28043   0.04411
 118        2PZ         0.00000   0.00012  -0.00002   0.00118  -0.00009
 119        3S         -0.00001   0.20507   0.00339   0.00084   0.06437
 120        3PX        -0.00005   0.05165   0.00565  -0.00538   0.04290
 121        3PY         0.00057   0.02222  -0.00819   0.01288   0.02052
 122        3PZ         0.00000  -0.00003  -0.00002   0.00006  -0.00003
 123        4XX        -0.00002   0.00342  -0.00035   0.02026   0.00686
 124        4YY        -0.00003   0.02113   0.00032  -0.02028  -0.00458
 125        4ZZ        -0.00002  -0.01771  -0.00017  -0.00001  -0.00152
 126        4XY         0.00000  -0.01094   0.00053  -0.02197   0.00686
 127        4XZ         0.00000  -0.00009   0.00000  -0.00013   0.00001
 128        4YZ         0.00000   0.00017   0.00000  -0.00001  -0.00003
 129 13  O  1S         -0.00001  -0.10868   0.00288  -0.14373   0.02445
 130        2S         -0.00002   0.24296  -0.00688   0.32094  -0.05715
 131        2PX        -0.00001   0.08401  -0.00159   0.08375   0.00803
 132        2PY        -0.00001  -0.07378   0.00101  -0.04339   0.01985
 133        2PZ         0.00000  -0.00045   0.00001  -0.00036   0.00005
 134        3S         -0.00010   0.19114  -0.00146   0.30737  -0.05708
 135        3PX        -0.00003   0.03286   0.00018   0.04998  -0.00226
 136        3PY         0.00006  -0.03491  -0.00070  -0.02393   0.00636
 137        3PZ         0.00000  -0.00021  -0.00001  -0.00022   0.00002
 138        4XX        -0.00002   0.00990  -0.00038   0.01387   0.00052
 139        4YY         0.00000   0.00987  -0.00015   0.00074  -0.00324
 140        4ZZ        -0.00004  -0.00292   0.00000  -0.00432  -0.00059
 141        4XY         0.00001  -0.01619   0.00010  -0.00992   0.00177
 142        4XZ         0.00000  -0.00009   0.00000  -0.00009   0.00000
 143        4YZ         0.00000   0.00009   0.00000   0.00004  -0.00002
 144 14  O  1S         -0.00001  -0.10858  -0.00235   0.14381   0.02492
 145        2S         -0.00003   0.24273   0.00627  -0.32093  -0.05843
 146        2PX         0.00000   0.00370   0.00066  -0.02570   0.02012
 147        2PY         0.00000   0.11162   0.00149  -0.09074  -0.00789
 148        2PZ         0.00000   0.00034   0.00000  -0.00021  -0.00006
 149        3S          0.00037   0.19091  -0.00135  -0.30810  -0.05625
 150        3PX        -0.00002  -0.00294  -0.00079  -0.01695   0.00328
 151        3PY         0.00015   0.04780  -0.00142  -0.05303  -0.00539
 152        3PZ         0.00000   0.00016  -0.00001  -0.00013  -0.00002
 153        4XX        -0.00003  -0.00409   0.00041   0.00174  -0.00004
 154        4YY         0.00001   0.02387   0.00045  -0.01627  -0.00282
 155        4ZZ        -0.00002  -0.00293   0.00030   0.00439  -0.00065
 156        4XY         0.00000  -0.00101  -0.00004  -0.00695   0.00230
 157        4XZ         0.00000   0.00000   0.00000  -0.00002   0.00001
 158        4YZ         0.00000   0.00010   0.00000  -0.00006  -0.00001
 159 15  O  1S          0.00000   0.00000  -0.19512  -0.00387   0.01866
 160        2S          0.00001   0.00010   0.42984   0.00834  -0.04125
 161        2PX         0.00000  -0.00002  -0.13130  -0.00256   0.00332
 162        2PY        -0.00001  -0.00009  -0.04312  -0.00084   0.00723
 163        2PZ         0.00000   0.00000  -0.00057  -0.00001   0.00003
 164        3S         -0.00021   0.00028   0.39762   0.00817  -0.04374
 165        3PX         0.00002  -0.00066  -0.05373  -0.00134   0.00236
 166        3PY         0.00004   0.00087  -0.01359  -0.00054   0.00186
 167        3PZ         0.00000   0.00000  -0.00024  -0.00001   0.00001
 168        4XX         0.00001   0.00014   0.01646   0.00034  -0.00068
 169        4YY         0.00001  -0.00005  -0.00119  -0.00008  -0.00030
 170        4ZZ        -0.00002   0.00011  -0.00284  -0.00019   0.00036
 171        4XY         0.00000  -0.00004   0.00712   0.00020  -0.00081
 172        4XZ         0.00000   0.00000   0.00010   0.00000  -0.00001
 173        4YZ         0.00000   0.00000   0.00003   0.00000  -0.00001
 174 16  H  1S          0.00003   0.00030   0.02697   0.00044   0.00676
 175        2S          0.00012  -0.00145  -0.01205   0.00132   0.00201
                          16        17        18        19        20
                           O         O         O         O         O
     Eigenvalues --    -1.10993  -1.07965  -0.97331  -0.92171  -0.86357
   1 1   C  1S         -0.03855  -0.10395   0.07686  -0.08237   0.03161
   2        2S          0.07688   0.20264  -0.15040   0.16573  -0.06303
   3        2PX        -0.04930   0.06648  -0.02388  -0.05396   0.10966
   4        2PY        -0.06906   0.03326   0.00607   0.00661   0.15430
   5        2PZ         0.00004  -0.00004   0.00001   0.00001  -0.00010
   6        3S          0.04671   0.14307  -0.12678   0.14313  -0.04532
   7        3PX        -0.01389   0.00754  -0.00109  -0.02943   0.03165
   8        3PY         0.00335   0.01297  -0.00029   0.02068   0.02964
   9        3PZ         0.00000  -0.00001   0.00000  -0.00002  -0.00003
  10        4XX        -0.00428   0.01343  -0.00398   0.00541   0.00814
  11        4YY         0.00972   0.00130  -0.00568   0.00538  -0.01146
  12        4ZZ        -0.00287  -0.00864   0.00650  -0.00605   0.00282
  13        4XY        -0.00018   0.00282   0.00405  -0.00132   0.00726
  14        4XZ         0.00000  -0.00001   0.00001   0.00000  -0.00001
  15        4YZ         0.00000  -0.00001   0.00000   0.00000   0.00000
  16 2   C  1S          0.05286  -0.12321  -0.00709   0.02458  -0.10440
  17        2S         -0.10060   0.23615   0.01502  -0.04805   0.20831
  18        2PX        -0.06005  -0.03747   0.12850  -0.11445  -0.01637
  19        2PY         0.03005  -0.03455  -0.00743   0.01814   0.08409
  20        2PZ         0.00000   0.00004  -0.00003   0.00002  -0.00002
  21        3S         -0.07003   0.18135   0.01037  -0.04549   0.18533
  22        3PX        -0.00283  -0.00192   0.02216  -0.02421  -0.00072
  23        3PY         0.00247  -0.00434   0.00068  -0.00290   0.06193
  24        3PZ         0.00000   0.00000   0.00000   0.00002  -0.00003
  25        4XX        -0.00272   0.01074  -0.00164   0.00129   0.00207
  26        4YY        -0.00450   0.00661   0.00236  -0.00398   0.01031
  27        4ZZ         0.00452  -0.01000  -0.00003   0.00202  -0.00708
  28        4XY         0.00714   0.00301  -0.01093   0.00812   0.00243
  29        4XZ         0.00000  -0.00001   0.00001   0.00000   0.00000
  30        4YZ         0.00000  -0.00001   0.00000   0.00000  -0.00001
  31 3   C  1S          0.10529  -0.03576  -0.10049   0.04797   0.05382
  32        2S         -0.20376   0.06959   0.20012  -0.09595  -0.10881
  33        2PX         0.02811  -0.05693   0.01771   0.04691  -0.07705
  34        2PY         0.03551   0.09127  -0.00007  -0.07115   0.14644
  35        2PZ         0.00000  -0.00002  -0.00002   0.00001  -0.00004
  36        3S         -0.14288   0.04781   0.16276  -0.07871  -0.08942
  37        3PX         0.00207  -0.00404   0.01692  -0.00398  -0.04032
  38        3PY        -0.00253   0.01003   0.01293  -0.01524   0.02773
  39        3PZ         0.00001   0.00000  -0.00002  -0.00002  -0.00001
  40        4XX        -0.00547   0.00930   0.00692  -0.00696   0.00080
  41        4YY        -0.00987  -0.00469   0.00651   0.00145  -0.00747
  42        4ZZ         0.00911  -0.00289  -0.00752   0.00366   0.00423
  43        4XY         0.00029  -0.00759   0.00016   0.00063  -0.01064
  44        4XZ         0.00000   0.00000   0.00000   0.00000   0.00001
  45        4YZ         0.00000   0.00000   0.00000   0.00001   0.00000
  46 4   C  1S          0.09836   0.09023  -0.01331  -0.05707   0.03038
  47        2S         -0.18845  -0.17463   0.02675   0.11576  -0.05889
  48        2PX        -0.01494   0.03517   0.08875   0.14398  -0.03184
  49        2PY        -0.04357   0.06843   0.10195  -0.09592  -0.17225
  50        2PZ         0.00001  -0.00003  -0.00004  -0.00002   0.00001
  51        3S         -0.13716  -0.13053   0.03144   0.08653  -0.06895
  52        3PX        -0.00102  -0.00014   0.03058   0.07305  -0.00655
  53        3PY        -0.01305   0.01052   0.02270  -0.02889  -0.03056
  54        3PZ         0.00000   0.00000  -0.00001   0.00003   0.00002
  55        4XX        -0.00086  -0.01080  -0.00836   0.00299   0.00544
  56        4YY        -0.01134  -0.00002   0.00990   0.00329  -0.00676
  57        4ZZ         0.00770   0.00650  -0.00059  -0.00376   0.00215
  58        4XY         0.00034  -0.00235  -0.00304  -0.01205  -0.00284
  59        4XZ         0.00000   0.00001   0.00000   0.00000   0.00000
  60        4YZ         0.00001   0.00001   0.00000  -0.00001   0.00000
  61 5   C  1S         -0.00346   0.10468   0.07712   0.08023  -0.05164
  62        2S          0.00863  -0.20448  -0.15095  -0.16095   0.10583
  63        2PX        -0.10858  -0.03859  -0.01003   0.10293   0.01580
  64        2PY         0.00516  -0.01284  -0.01959  -0.02880  -0.09874
  65        2PZ         0.00004   0.00001   0.00002  -0.00003   0.00001
  66        3S          0.00139  -0.14587  -0.11868  -0.10918   0.09095
  67        3PX        -0.01783  -0.01439   0.00030   0.02855   0.01790
  68        3PY        -0.00684   0.01148   0.00394   0.02296  -0.06623
  69        3PZ         0.00001   0.00000   0.00001  -0.00003   0.00000
  70        4XX        -0.00074  -0.00991  -0.00118   0.00008   0.00297
  71        4YY         0.00094  -0.00517  -0.00847  -0.00914   0.00456
  72        4ZZ         0.00009   0.00848   0.00646   0.00617  -0.00347
  73        4XY        -0.01012  -0.00349   0.00163   0.00383   0.00234
  74        4XZ         0.00000   0.00001   0.00000   0.00000  -0.00001
  75        4YZ         0.00000   0.00000   0.00000   0.00000   0.00000
  76 6   C  1S         -0.11107   0.01581   0.00772   0.01575   0.04793
  77        2S          0.22044  -0.03163  -0.01139  -0.03112  -0.09811
  78        2PX        -0.06642  -0.02749  -0.18589  -0.11773  -0.02093
  79        2PY        -0.01015   0.11520  -0.07975   0.14920  -0.15104
  80        2PZ         0.00002  -0.00003   0.00011  -0.00002   0.00008
  81        3S          0.13950  -0.02289  -0.05373  -0.03472  -0.08250
  82        3PX         0.01450  -0.01306  -0.01001  -0.02612   0.03268
[...]
 Sum of Mulliken atomic charges =   0.00000
 Mulliken charges with hydrogens summed into heavy atoms:
              1
     1  C    0.856402
     2  C   -0.292777
     3  C   -0.123311
     4  C    0.792391
     5  C   -0.421756
     6  C   -0.676105
    10  C    0.491176
    12  N    0.016916
    13  O   -0.130665
    14  O   -0.122910
    15  O   -0.389363
 Sum of Mulliken charges with hydrogens summed into heavy atoms =   0.00000
 Electronic spatial extent (au):  <R**2>=           1896.5193
 Charge=              0.0000 electrons
 Dipole moment (field-independent basis, Debye):
    X=             -1.1952    Y=              2.0558    Z=              0.0000  Tot=              2.3780
 Quadrupole moment (field-independent basis, Debye-Ang):
   XX=            -91.3680   YY=            -55.2624   ZZ=            -63.6514
   XY=              2.8052   XZ=              0.0000   YZ=              0.0001
 Traceless Quadrupole moment (field-independent basis, Debye-Ang):
   XX=            -21.2740   YY=             14.8315   ZZ=              6.4425
   XY=              2.8052   XZ=              0.0000   YZ=              0.0001
 Octapole moment (field-independent basis, Debye-Ang**2):
  XXX=             36.8729  YYY=              8.4264  ZZZ=             -0.0001  XYY=            -12.9980
  XXY=             20.3032  XXZ=              0.0005  XZZ=              6.0425  YZZ=             -6.2580
  YYZ=             -0.0001  XYZ=              0.0002
 Hexadecapole moment (field-independent basis, Debye-Ang**3):
 XXXX=          -2257.3086 YYYY=           -515.8880 ZZZZ=            -65.7321 XXXY=            -43.3628
 XXXZ=             -0.0002 YYYX=             26.1001 YYYZ=              0.0003 ZZZX=              0.0000
 ZZZY=             -0.0001 XXYY=           -384.5667 XXZZ=           -293.7015 YYZZ=           -114.5373
 XXYZ=              0.0003 YYXZ=             -0.0002 ZZXY=             -0.2164
 N-N= 5.562917752465D+02 E-N=-2.395036106868D+03  KE= 5.460539389381D+02

 Test job not archived.
 1\1\GINC-PALLAS\SP\RMP2\GTMP2large\C7H5N1O3\JMSOLANO\11-Mar-2020\0\\#N
  Geom=AllCheck Guess=TCheck SCRF=Check Test MP2=FrzG3/GTMP2Large\\3NBA
 Lb_opt, G3MP2, qcisd test\\0,1\C,0,-0.0031129151,-0.0005572173,-0.0032
 477833\C,0,0.0047567644,-0.0010399894,1.3928787141\C,0,1.2069330446,-0
 .0005730817,2.0937612658\C,0,2.4179051537,0.0003901471,1.3932921334\C,
 0,2.4346032203,0.0008863099,-0.0019187527\C,0,1.2169380772,0.000399256
 1,-0.6700218396\H,0,-0.9271511294,-0.0009072023,-0.5705315153\H,0,-0.9
 392527469,-0.0017874141,1.9307690672\H,0,1.2322511072,-0.0009372063,3.
 1801696998\C,0,3.7022678754,0.0008895949,2.1371308385\H,0,3.3648912747
 ,0.0016347508,-0.5627297457\N,0,1.2195850076,0.0009140379,-2.141519879
 4\O,0,0.1209003498,0.0004421146,-2.7176206479\O,0,2.3217433174,0.00178
 7295,-2.7113125643\O,0,3.7776238813,0.000496701,3.3592726036\H,0,4.615
 2777673,0.0016411865,1.5084615643\\Version=EM64L-G09RevB.01\State=1-A\
 HF=-547.0708967\MP2=-549.0623992\RMSD=8.702e-09\PG=C01 [X(C7H5N1O3)]\\
 @


 HE THAT IS UNAWARE OF HIS IGNORANCE WILL BE MISLED BY HIS KNOWLEDGE.

                                        -- WHATLEY

 Temperature=              298.150000 Pressure=                      1.000000
 E(ZPE)=                     0.109003 E(Thermal)=                    0.118009
 E(QCISD(T))=             -548.592160 E(Empiric)=                   -0.259812
 DE(MP2)=                   -0.568373
 G3MP2(0 K)=              -549.311342 G3MP2 Energy=               -549.302337
 G3MP2 Enthalpy=          -549.301392 G3MP2 Free Energy=          -549.346432

 Test job not archived.
 1\1\GINC-PALLAS\Mixed\G3MP2\G3MP2\C7H5N1O3\JMSOLANO\11-Mar-2020\0\\#G3
 MP2 QCISD=(Maxcyc=400) opt=(MaxCycles=400) scf=(MaxCycle=600) test GFI
 nput IOP(6/7=3)\\3NBALb_opt, G3MP2, qcisd test\\0,1\C,0,-0.0031129151,
 -0.0005572173,-0.0032477833\C,0,0.0047567644,-0.0010399894,1.392878714
 1\C,0,1.2069330446,-0.0005730817,2.0937612658\C,0,2.4179051537,0.00039
 01471,1.3932921334\C,0,2.4346032203,0.0008863099,-0.0019187527\C,0,1.2
 169380772,0.0003992561,-0.6700218396\H,0,-0.9271511294,-0.0009072023,-
 0.5705315153\H,0,-0.9392527469,-0.0017874141,1.9307690672\H,0,1.232251
 1072,-0.0009372063,3.1801696998\C,0,3.7022678754,0.0008895949,2.137130
 8385\H,0,3.3648912747,0.0016347508,-0.5627297457\N,0,1.2195850076,0.00
 09140379,-2.1415198794\O,0,0.1209003498,0.0004421146,-2.7176206479\O,0
 ,2.3217433174,0.001787295,-2.7113125643\O,0,3.7776238813,0.000496701,3
 .3592726036\H,0,4.6152777673,0.0016411865,1.5084615643\\Version=EM64L-
 G09RevB.01\State=1-A\MP2/G3Bas1=-548.4940258\QCISD(T)/G3Bas1=-548.5921
 599\MP2/GTMP2Large=-549.0623992\G3MP2=-549.3113423\FreqCoord=0.0141712
 505,-0.00097007,-0.0032732464,0.0160785778,-0.0018940291,2.6176320447,
 2.2773994708,-0.0011744265,3.9225534382,4.56610362,0.0004979339,2.6203
 699995,4.5841964065,0.0014672469,0.0054209129,2.300411613,0.000700663,
 -1.2658800826,-1.7160112691,-0.0015314816,-1.0540066837,-1.7466835465,
 -0.0031694258,3.6227710238,2.3095268677,-0.0018929456,5.9511622946,6.9
 943793963,0.0012277544,4.0323264799,6.320637627,0.0027906034,-1.039526
 0761,2.3094932446,0.0016929742,-4.0206325183,0.3158609151,0.0006002003
 ,-5.0728414267,4.3127872864,0.0037832343,-5.0569638816,7.1368697272,0.
 0013607349,6.2741571667,8.6957648026,0.0034638694,2.8604592241\PG=C01 
 [X(C7H5N1O3)]\NImag=0\\0.83771339,0.00033250,0.17618713,0.05717315,-0.
 00018116,0.78276157,-0.17027196,-0.00007020,0.05863872,0.83451943,-0.0
 0002852,-0.07814947,0.00013084,0.00036920,0.16285539,-0.05301124,0.000
 07155,-0.36539192,-0.04989764,-0.00023649,0.76208459,0.06539420,0.0000
 7335,-0.11736667,-0.33035996,-0.00012080,-0.03509075,0.74851178,0.0000
 4459,0.00663716,-0.00005010,-0.00008034,-0.07886555,0.00003435,0.00028
 748,0.18059117,-0.03708459,-0.00000773,-0.02668370,-0.14265968,-0.0000
 2290,-0.22037210,0.01998973,-0.00023588,0.85673857,-0.02960881,-0.0000
 2658,0.04239413,-0.06502301,-0.00002250,-0.04272607,-0.29316722,-0.000
 15376,0.12706185,0.74746134,-0.00003095,-0.00739774,0.00005033,-0.0000
 5287,0.01104057,-0.00005865,-0.00011742,-0.08057128,0.00011757,0.00031
 967,0.16274196,0.05180135,0.00005531,-0.08366747,0.03717230,-0.0000138
 1,0.10197899,0.03425613,0.00006668,-0.21300640,-0.01222603,-0.00023059
 ,0.79072560,-0.07212483,-0.00006013,0.04651091,-0.03245638,0.00000614,
 -0.05589165,0.06443676,0.00001757,0.03662247,-0.16704346,-0.00006162,0
 .05700623,0.83480040,-0.00002779,0.00919188,-0.00000805,0.00000349,-0.
 00620177,-0.00000077,-0.00001136,0.00704281,0.00003193,-0.00002807,-0.
 07719342,0.00014300,0.00036793,0.17596606,-0.04324442,-0.00005638,0.10
 197436,-0.04909240,0.00000413,-0.08837708,0.11550669,0.00007208,-0.025
 37207,-0.04280860,0.00009039,-0.36935664,-0.05158184,-0.00025736,0.788
 63073,-0.32946965,-0.00014238,0.02174920,0.06303339,-0.00001489,0.1183
 4169,-0.11562100,-0.00005714,0.00028982,0.05246136,0.00006025,-0.11346
 704,-0.32285666,-0.00012124,-0.02413974,0.85046484,-0.00018450,-0.0750
 3623,0.00005110,0.00002011,0.00732353,0.00007540,-0.00005541,-0.006998
 71,-0.00000168,0.00003070,0.00949171,-0.00004313,-0.00008607,-0.076082
 48,0.00002577,0.00038940,0.16071965,0.13113635,0.00010719,-0.18916385,
 0.02688279,0.00002683,-0.02846779,-0.00444486,-0.00000386,-0.00329222,
 -0.01978678,0.00000617,-0.03234760,-0.13193461,-0.00002915,-0.18741585
 ,-0.00043059,-0.00019168,0.68414910,-0.31231176,-0.00009014,-0.1399291
 4,0.00919304,-0.00000019,0.00277495,0.00091427,-0.00000481,0.00166639,
 0.00048237,0.00000038,0.00068070,-0.00349850,-0.00000697,0.00428713,-0
 .01967975,-0.00000848,-0.01818673,0.32335602,-0.00008871,-0.05280141,-
 0.00003912,0.00001167,0.00771219,0.00000701,-0.00000386,0.00864148,0.0
 0000618,0.00000017,-0.00056048,0.00000014,-0.00000624,0.00639614,0.000
 00601,-0.00002132,0.00802748,-0.00001129,0.00010193,0.03367997,-0.1431
 2460,-0.00003938,-0.15660724,-0.03069211,-0.00001114,-0.00812142,0.000
 54257,0.00000560,-0.00661312,0.00122645,0.00000076,-0.00101527,0.00410
 967,0.00000532,-0.00215468,0.01426858,0.00000432,0.01688019,0.15360418
 ,0.00003767,0.16021930,0.00671968,0.00000219,-0.00293177,-0.30898422,-
 0.00018474,0.13472348,-0.02010215,-0.00001956,0.01799177,-0.00368484,-
 0.00000440,-0.00438832,0.00010693,0.00000076,-0.00101669,0.00140121,-0
 .00000328,-0.00085328,0.00075674,0.00000287,0.00053899,0.32308125,-0.0
 0001079,0.00453210,0.00000443,-0.00018431,-0.04679419,0.00010644,-0.00
 000686,0.00508286,0.00000563,-0.00000512,0.00848731,0.00000102,0.00000
 051,-0.00050708,-0.00000021,-0.00000269,0.00796559,0.00000456,0.000003
 28,-0.00500508,-0.00000184,0.00020317,0.03200200,0.03346043,0.00002344
 ,-0.01212281,0.13436841,0.00010629,-0.14956609,-0.01834598,-0.00001338
 ,0.01569990,-0.00366231,0.00000197,-0.00157814,-0.00093873,-0.00000026
 ,-0.00103445,-0.00188690,0.00000343,-0.00571546,-0.00048690,-0.0000024
 2,0.00128163,-0.14448360,-0.00011785,0.15231436,-0.00556017,-0.0000064
 0,-0.00338322,0.00782916,0.00001167,-0.03165401,-0.07444174,-0.0000085
 6,-0.00366713,0.00870461,-0.00001093,0.03155794,-0.00619985,-0.0000080
 0,0.00279763,-0.00168517,-0.00000104,0.00014394,0.00030350,0.00000098,
 -0.00135788,0.00111152,0.00000310,0.00072874,0.06838797,-0.00000710,0.
 00910904,0.00000219,-0.00000191,0.00776364,-0.00001123,-0.00000694,-0.
 05394066,0.00011854,-0.00000134,0.00667776,0.00002494,-0.00000844,0.00
 743692,0.00000339,0.00000010,0.00005383,-0.00000015,0.00000050,-0.0008
 3978,-0.00000076,0.00000336,-0.00518870,-0.00000187,0.00001589,0.03433
 652,-0.00243914,0.00000196,-0.00001141,0.00272642,0.00000726,-0.008373
 22,-0.00240987,0.00012104,-0.38859302,-0.00019475,0.00000617,-0.011833
 64,0.00282365,0.00000404,-0.00001400,-0.00016448,-0.00000041,0.0010331
 6,0.00024227,-0.00000005,-0.00040112,-0.00033863,-0.00000231,0.0008874
 1,0.00334384,-0.00013430,0.40883174,-0.00011538,-0.00000133,0.00487484
 ,-0.00510967,-0.00000992,0.00601427,-0.03556074,-0.00001571,-0.0153457
 7,-0.24186960,-0.00004822,-0.04001565,0.00920132,0.00000592,-0.0108261
 8,0.00686357,-0.00000432,0.00195214,-0.00013181,0.00000052,-0.00019775
 ,-0.00035005,0.00000009,-0.00072376,0.00095475,0.00000428,-0.00103373,
 0.66006566,-0.00000082,-0.00073604,0.00000094,-0.00000789,0.00752572,0
 .00000688,-0.00002794,0.00361226,-0.00001581,-0.00008987,-0.09079597,-
 0.00000002,0.00002099,0.00093776,0.00000101,-0.00000429,0.00969015,0.0
 0000932,0.00000040,-0.00082662,-0.00000025,-0.00000080,0.00007725,-0.0
 0000060,0.00000210,-0.00417636,-0.00000168,0.00036816,0.22977718,0.002
 46372,0.00000232,-0.00351962,0.00936962,0.00000540,0.00160213,0.000948
 70,-0.00001183,0.02708658,-0.01989864,0.00002574,-0.13497030,-0.034816
 29,-0.00000901,-0.02431206,0.00120097,0.00000552,-0.00789966,0.0000121
 3,-0.00000007,-0.00035127,0.00199557,0.00000096,0.00100073,0.00252168,
 0.00000161,-0.00257098,-0.02445219,-0.00014525,1.21781658,-0.00335609,
 -0.00000356,-0.00465968,0.00044631,0.00000084,-0.00042823,0.00054954,-
 0.00000372,-0.00157710,0.00816655,0.00000056,0.00042362,-0.30905074,-0
 .00018889,0.13636938,-0.01990472,-0.00002114,0.01832668,-0.00091271,-0
 .00000104,0.00097400,-0.00000732,0.00000042,0.00004541,0.00025296,0.00
 000036,-0.00030063,0.00028669,0.00000384,-0.00259397,0.32175179,-0.000
 00289,0.00609023,-0.00000023,0.00000156,-0.00063248,0.00000080,-0.0000
 0441,0.00820575,0.00000477,-0.00000971,0.00600041,0.00000210,-0.000191
 01,-0.05077787,0.00011421,-0.00001033,0.00764472,0.00000514,-0.0000002
 6,0.00033372,0.00000021,0.00000042,-0.00082973,-0.00000028,-0.00000029
 ,-0.00022402,-0.00000004,0.00000359,-0.00563428,-0.00000246,0.00021112
 ,0.03333016,-0.00402424,0.00000087,-0.00236535,-0.00078328,-0.00000031
 ,-0.00077676,-0.00126581,0.00000505,-0.00646289,0.03039767,0.00002123,
 -0.00843103,0.14068629,0.00011229,-0.15489928,-0.01446626,-0.00001036,
 0.01697600,-0.00095710,-0.00000068,0.00084443,0.00003882,-0.00000031,0
 .00004818,0.00150558,0.00000084,-0.00047792,0.00263407,-0.00000017,0.0
 0007016,-0.15135394,-0.00012672,0.15856372,0.02097080,0.00000129,0.033
 97347,-0.00966043,-0.00001338,0.00619315,-0.00470357,-0.00000162,0.000
 03325,-0.01074169,-0.00000847,-0.00671020,0.02043583,0.00002391,-0.033
 38934,-0.14931451,-0.00002731,0.00047536,-0.00497371,0.00000021,0.0012
 8240,0.00029913,-0.00000105,0.00224930,-0.00064068,0.00000050,0.000019
 85,0.00365899,0.00000274,-0.00248911,-0.00482032,0.00000127,-0.0015553
 1,1.26098539,0.00000878,-0.00334509,0.00002612,-0.00001255,0.01017625,
 0.00000599,-0.00000335,-0.00138657,-0.00000081,-0.00000987,0.01000276,
 -0.00000449,0.00002139,-0.00337091,-0.00000378,-0.00002737,-0.09864048
 ,0.00004144,0.00000006,-0.00530558,-0.00000071,-0.00000004,0.00075875,
 0.00000135,0.00000018,-0.00118997,-0.00000035,0.00000338,0.00137270,-0
 .00000059,-0.00000198,-0.00526695,-0.00000389,0.00075162,0.29599792,0.
 01726091,0.00002223,-0.03453397,0.00756216,0.00000582,0.00694352,0.001
 04432,-0.00000071,0.00130854,-0.00722550,-0.00000341,0.00897484,-0.016
 44118,0.00000193,-0.03541429,-0.00041289,0.00002839,-0.19423272,-0.002
 64172,-0.00000467,0.00077645,-0.00059689,-0.00000013,0.00035466,-0.000
 17911,-0.00000052,-0.00017597,-0.00401597,-0.00000188,-0.00177929,0.00
 265416,-0.00000027,0.00084207,0.00344178,-0.00025079,0.89343838,-0.010
 02248,-0.00000838,0.00601023,0.00237109,0.00000230,-0.00139971,-0.0007
 9817,-0.00000071,0.00051337,0.00264412,0.00000340,-0.00130419,0.001468
 30,-0.00000110,0.00013789,-0.00627395,-0.00001140,-0.02921449,0.004401
 40,0.00000227,0.00090139,0.00007274,0.00000016,-0.00040599,0.00042327,
 0.00000011,0.00001739,-0.00018647,0.00000019,0.00062994,0.00194370,-0.
 00000108,0.00202681,-0.55895022,-0.00024694,-0.26338485,0.73298366,-0.
 00000650,0.00184391,0.00000708,0.00000185,-0.00075256,-0.00000189,0.00
 000060,0.00014708,0.00000060,0.00000271,-0.00134602,0.00000037,-0.0000
 0385,0.00356456,0.00000221,-0.00000225,0.02425798,-0.00000238,0.000002
 88,-0.00003070,0.00000218,-0.00000001,-0.00000665,-0.00000013,0.000000
 27,0.00002653,0.00000003,-0.00000077,-0.00062262,0.00000001,0.00000110
 ,0.00053239,0.00000155,-0.00025196,-0.09960012,-0.00010696,0.00042152,
 0.03665075,-0.00189284,0.00000009,-0.00507045,-0.00173019,-0.00000115,
 0.00075486,-0.00238489,-0.00000066,-0.00063533,-0.00149636,0.00000130,
 -0.00427227,0.00811865,0.00000677,-0.00479135,-0.05776153,-0.00001853,
 -0.03589896,-0.00083611,0.00000090,-0.00577723,0.00022182,0.00000009,-
 0.00023746,-0.00000508,-0.00000006,-0.00007107,0.00302471,0.00000167,0
 .00094710,0.00014717,-0.00000062,0.00077143,-0.23679506,-0.00009138,-0
 .32669462,0.29080252,0.00011481,0.31420318,0.00152572,-0.00000114,-0.0
 0035344,0.00218427,0.00000241,0.00143609,-0.00028084,-0.00000019,-0.00
 056650,0.00269821,0.00000131,0.00234664,-0.00967906,-0.00000263,-0.006
 61798,-0.00711182,-0.00004032,0.02933366,0.00199417,0.00000038,-0.0019
 3255,-0.00000872,0.00000018,0.00020840,0.00037194,0.00000005,-0.000087
 51,-0.00180029,-0.00000147,0.00063303,0.00432242,0.00000263,-0.0006946
 7,-0.56006156,-0.00048105,0.25980662,-0.17017946,-0.00016605,0.0024231
 3,0.73461665,0.00000249,0.00360490,0.00000506,0.00000117,-0.00140886,0
 .00000153,-0.00000066,0.00019289,-0.00000015,0.00000178,-0.00072721,0.
 00000203,-0.00000810,0.00181879,-0.00000243,-0.00004860,0.02435743,0.0
 0004333,0.00000139,0.00049693,-0.00000182,0.00000023,-0.00040405,0.000
 00053,0.00000019,0.00005072,0.,-0.00000261,-0.00008948,-0.00000026,0.0
 0000249,-0.00005680,0.00000246,-0.00047580,-0.09963773,0.00030894,-0.0
 0016036,0.03509972,-0.00001205,0.00068466,0.03665459,-0.00840234,-0.00
 000053,-0.00468662,0.00029763,0.00000005,-0.00418982,0.00247508,0.0000
 0169,-0.00061550,0.00075004,-0.00000023,0.00022454,0.00159369,0.000005
 05,-0.00515882,0.05834149,0.00007197,-0.03547858,-0.00014123,0.0000004
 8,0.00075868,0.00001661,0.00000008,-0.00102420,0.00011176,0.00000019,-
 0.00004681,0.00270029,0.00000151,0.00129568,0.00085103,0.00000353,-0.0
 0583381,0.23323133,0.00028255,-0.32184751,-0.00441102,-0.00001745,0.06
 873538,-0.28570509,-0.00034766,0.30914538,0.00014524,0.00000087,-0.002
 22665,0.00303950,0.00000198,-0.00120127,-0.00039617,-0.00000116,0.0020
 0920,0.00980942,-0.00000219,-0.05589830,-0.00800958,-0.00000690,0.0014
 4987,-0.00179589,0.00000230,-0.00266022,0.00004867,0.00000006,-0.00009
 211,0.00004771,-0.00000019,0.00018102,-0.00012774,0.00000087,-0.002345
 61,-0.12940062,-0.00004398,-0.03705130,0.00008586,-0.00000077,-0.00069
 671,-0.00168801,-0.00000146,0.00236216,-0.00007970,0.00000025,-0.00149
 442,0.00088195,0.00000117,-0.00128615,0.10745524,-0.00000012,-0.000038
 65,0.00000050,0.00000092,-0.00054084,-0.00000171,0.00000077,-0.0007207
 9,0.00000209,0.00000463,0.02279841,-0.00002291,-0.00000906,0.00294440,
 0.00000021,0.00000252,-0.00212016,-0.00000359,-0.00000006,0.00013102,-
 0.00000007,-0.00000004,0.00011145,0.00000010,0.00000054,-0.00020004,-0
 .00000149,-0.00004406,-0.07647627,-0.00001765,-0.00000033,0.00098001,-
 0.00000028,-0.00000097,-0.00056008,0.00000107,-0.00000014,0.00020925,-
 0.00000073,0.00000060,0.00007089,-0.00000068,0.00005429,0.02886352,-0.
 00012024,0.00000026,-0.00114111,-0.00131782,0.00000007,-0.00062040,0.0
 0912429,0.00000983,-0.00696194,-0.03725329,-0.00002250,-0.05082929,-0.
 00560815,-0.00000429,0.00602408,-0.00193519,0.,0.00067748,-0.00008397,
 -0.00000010,0.00028732,-0.00071515,-0.00000047,-0.00017478,-0.00219908
 ,-0.00000261,0.00176476,-0.03232740,0.00000815,-0.94705659,0.00106181,
 -0.00000025,0.00128905,-0.00011227,-0.00000080,0.00220226,-0.00090510,
 0.,-0.00208090,-0.00017819,0.00000060,-0.00139507,0.06073730,0.0000003
 8,1.04888712,0.00037210,0.00000004,-0.00047407,-0.00075055,0.00000038,
 0.00181694,-0.00437499,-0.00000234,-0.00527707,-0.02128933,-0.00004849
 ,0.01876483,0.00046953,0.00000094,0.00216860,-0.00051126,0.00000074,-0
 .00073933,0.00005808,0.00000011,-0.00005123,-0.00045962,0.00000009,-0.
 00030753,0.00031567,-0.00000028,0.00014093,-0.26650635,-0.00022137,0.1
 0152615,0.00024610,0.00000015,-0.00149193,-0.00079543,-0.00000082,0.00
 076599,0.00018217,0.00000021,-0.00034153,0.00052643,0.00000057,-0.0004
 2311,0.01998413,-0.00000949,0.01183244,0.27253330,0.00000034,0.0003082
 8,0.00000006,0.00000011,-0.00105158,0.00000079,-0.00000318,0.00233008,
 -0.00000236,-0.00001286,0.02135124,0.00001937,0.,-0.00116580,0.0000007
 5,0.00000024,-0.00065400,-0.00000189,0.00000009,-0.00004928,-0.0000000
 8,-0.00000014,-0.00028181,-0.00000033,0.00000030,0.00030457,0.00000014
 ,-0.00025902,-0.07363539,0.00014555,-0.00000007,0.00030473,-0.00000156
 ,-0.00000099,-0.00000490,0.00000095,0.00000014,0.00002649,-0.00000044,
 0.00000063,-0.00002273,-0.00000053,-0.00000515,0.02454788,0.00001173,0
 .00027954,0.02769223,0.00004774,-0.00000005,0.00022961,-0.00084493,-0.
 00000088,0.00089252,-0.00257869,0.00000010,-0.00222531,-0.01455181,-0.
 00000626,0.00940407,-0.00025911,-0.00000142,0.00167140,0.00047288,-0.0
 0000009,0.00019677,-0.00000485,0.,-0.00000665,-0.00020271,-0.00000007,
 -0.00013349,-0.00026559,-0.00000021,0.00005208,0.10773810,0.00013618,-
 0.12735920,0.00006030,0.00000009,-0.00015802,0.00015140,0.00000012,-0.
 00016236,-0.00001420,-0.00000002,0.00011768,-0.00005163,-0.00000010,0.
 00011710,0.03821320,0.00004473,-0.05087201,-0.12791008,-0.00017214,0.1
 6823581\\-0.00001541,0.00000198,0.00003041,-0.00001300,-0.00000214,0.0
 0000184,0.00003384,0.00000181,0.00001472,-0.00001980,0.00004026,0.0000
 1510,-0.00000404,0.00000147,0.00000975,0.00001430,0.00000299,0.0000070
 6,0.00000654,-0.00000013,0.00000815,-0.00000246,0.00000009,0.00001251,
 -0.00000505,0.00000004,0.00000945,-0.00001100,-0.00013702,0.00001757,-
 0.00000552,0.00000171,0.00000855,-0.00000293,-0.00002492,0.00003148,0.
 00013560,0.00000833,-0.00008952,-0.00013371,0.00000954,-0.00008886,0.0
 0001446,0.00004849,0.00002054,0.00000816,0.00004751,-0.00000876\\\@
 Job cpu time:  0 days  0 hours 36 minutes  6.2 seconds.
 File lengths (MBytes):  RWF=  12534 Int=      0 D2E=      0 Chk=     11 Scr=      1
 Normal termination of Gaussian 09 at Wed Mar 11 00:09:47 2020.
