 Entering Gaussian System, Link 0=g09
 Input=3NBALa_opt.inp
 Output=3NBALa_opt.log
 Initial command:
 /usr/local/g09/l1.exe /home/g09scr/Gau-28960.inp -scrdir=/home/g09scr/
 Entering Link 1 = /usr/local/g09/l1.exe PID=     28962.
  
 Copyright (c) 1988,1990,1992,1993,1995,1998,2003,2009,2010,
            Gaussian, Inc.  All Rights Reserved.
  
 This is part of the Gaussian(R) 09 program.  It is based on
 the Gaussian(R) 03 system (copyright 2003, Gaussian, Inc.),
 the Gaussian(R) 98 system (copyright 1998, Gaussian, Inc.),
 the Gaussian(R) 94 system (copyright 1995, Gaussian, Inc.),
 the Gaussian 92(TM) system (copyright 1992, Gaussian, Inc.),
 the Gaussian 90(TM) system (copyright 1990, Gaussian, Inc.),
 the Gaussian 88(TM) system (copyright 1988, Gaussian, Inc.),
 the Gaussian 86(TM) system (copyright 1986, Carnegie Mellon
 University), and the Gaussian 82(TM) system (copyright 1983,
 Carnegie Mellon University). Gaussian is a federally registered
 trademark of Gaussian, Inc.
  
 This software contains proprietary and confidential information,
 including trade secrets, belonging to Gaussian, Inc.
  
 This software is provided under written license and may be
 used, copied, transmitted, or stored only in accord with that
 written license.
  
 The following legend is applicable only to US Government
 contracts under FAR:
  
                    RESTRICTED RIGHTS LEGEND
  
 Use, reproduction and disclosure by the US Government is
 subject to restrictions as set forth in subparagraphs (a)
 and (c) of the Commercial Computer Software - Restricted
 Rights clause in FAR 52.227-19.
  
 Gaussian, Inc.
 340 Quinnipiac St., Bldg. 40, Wallingford CT 06492
  
  
 ---------------------------------------------------------------
 Warning -- This program may not be used in any manner that
 competes with the business of Gaussian, Inc. or will provide
 assistance to any competitor of Gaussian, Inc.  The licensee
 of this program is prohibited from giving any competitor of
 Gaussian, Inc. access to this program.  By using this program,
 the user acknowledges that Gaussian, Inc. is engaged in the
 business of creating and licensing software in the field of
 computational chemistry and represents and warrants to the
 licensee that it is not a competitor of Gaussian, Inc. and that
 it will not use this program in any manner prohibited above.
 ---------------------------------------------------------------
  

 Cite this work as:
 Gaussian 09, Revision B.01,
 M. J. Frisch, G. W. Trucks, H. B. Schlegel, G. E. Scuseria, 
 M. A. Robb, J. R. Cheeseman, G. Scalmani, V. Barone, B. Mennucci, 
 G. A. Petersson, H. Nakatsuji, M. Caricato, X. Li, H. P. Hratchian, 
 A. F. Izmaylov, J. Bloino, G. Zheng, J. L. Sonnenberg, M. Hada, 
 M. Ehara, K. Toyota, R. Fukuda, J. Hasegawa, M. Ishida, T. Nakajima, 
 Y. Honda, O. Kitao, H. Nakai, T. Vreven, J. A. Montgomery, Jr., 
 J. E. Peralta, F. Ogliaro, M. Bearpark, J. J. Heyd, E. Brothers, 
 K. N. Kudin, V. N. Staroverov, T. Keith, R. Kobayashi, J. Normand, 
 K. Raghavachari, A. Rendell, J. C. Burant, S. S. Iyengar, J. Tomasi, 
 M. Cossi, N. Rega, J. M. Millam, M. Klene, J. E. Knox, J. B. Cross, 
 V. Bakken, C. Adamo, J. Jaramillo, R. Gomperts, R. E. Stratmann, 
 O. Yazyev, A. J. Austin, R. Cammi, C. Pomelli, J. W. Ochterski, 
 R. L. Martin, K. Morokuma, V. G. Zakrzewski, G. A. Voth, 
 P. Salvador, J. J. Dannenberg, S. Dapprich, A. D. Daniels, 
 O. Farkas, J. B. Foresman, J. V. Ortiz, J. Cioslowski, 
 and D. J. Fox, Gaussian, Inc., Wallingford CT, 2010.
 
 ******************************************
 Gaussian 09:  EM64L-G09RevB.01 12-Aug-2010
                10-Mar-2020 
 ******************************************
 %chk=3NBALa_opt.chk
 %nprocshared=6
 Will use up to    6 processors via shared memory.
 %mem=100GB
 ----------------------------------------------------------------------
 #G3MP2 QCISD=(Maxcyc=400) opt=(MaxCycles=400) scf=(MaxCycle=600) test 
 GFInput IOP(6/7=3)
 ----------------------------------------------------------------------
 1/6=400,18=20,19=15,38=1/1,3;
 2/9=110,12=2,17=6,18=5,40=1/2;
 3/5=33,7=1,11=9,16=1,24=10,25=1,30=1,71=1/1,2,3;
 4//1;
 5/5=2,7=600,38=5/2;
 6/7=3,8=2,9=2,10=2,28=1/1;
 7//1,2,3,16;
 1/6=400,18=20,19=15/3(2);
 2/9=110/2;
 99//99;
 2/9=110/2;
 3/5=33,7=1,11=9,16=1,25=1,30=1,71=1/1,2,3;
 4/5=5,16=3/1;
 5/5=2,7=600,38=5/2;
 7//1,2,3,16;
 1/6=400,18=20,19=15/3(-5);
 2/9=110/2;
 6/7=3,8=2,9=2,10=2,19=2,28=1/1;
 99/9=1/99;
 -----------------------------
 3NBALa_opt, G3MP2, qcisd test
 -----------------------------
 Symbolic Z-matrix:
 Charge =  0 Multiplicity = 1
 C
 C                    1    r02
 C                    2    r03      1    a03
 C                    3    r04      2    a04      1    d04      0
 C                    4    r05      3    a05      2    d05      0
 C                    5    r06      4    a06      3    d06      0
 H                    1    r07      2    a07      3    d07      0
 H                    2    r08      3    a08      1    d08      0
 H                    3    r09      4    a09      2    d09      0
 C                    4    r10      5    a10      3    d10      0
 H                    5    r11      6    a11      4    d11      0
 N                    6    r12      1    a12      2    d12      0
 O                    12   r13      6    a13      5    d13      0
 O                    12   r14      6    a14      1    d14      0
 O                    10   r15      4    a15      3    d15      0
 H                    10   r16      4    a16      15   d16      0
       Variables:
  r02                   1.39019                  
  r03                   1.3929                   
  a03                 119.81401                  
  r04                   1.39733                  
  a04                 120.57601                  
  d04                   0.00081                  
  r05                   1.39803                  
  a05                 119.99798                  
  d05                   0.00071                  
  r06                   1.38376                  
  a06                 118.42974                  
  d06                  -0.00296                  
  r07                   1.08166                  
  a07                 122.01741                  
  d07                 179.99807                  
  r08                   1.08389                  
  a08                 120.37164                  
  d08                 180.00316                  
  r09                   1.08628                  
  a09                 119.28835                  
  d09                 179.99828                  
  r10                   1.48481                  
  a10                 119.88674                  
  d10                 180.01107                  
  r11                   1.0819                   
  a11                 121.14629                  
  d11                 179.99935                  
  r12                   1.47812                  
  a12                 118.65241                  
  d12                 179.99879                  
  r13                   1.22387                  
  a13                 117.34623                  
  d13                 180.01377                  
  r14                   1.22204                  
  a14                 117.46821                  
  d14                 179.98775                  
  r15                   1.20662                  
  a15                 124.35333                  
  d15                 180.01676                  
  r16                   1.11251                  
  a16                 114.30361                  
  d16                 179.99863                  
 

 GradGradGradGradGradGradGradGradGradGradGradGradGradGradGradGradGradGrad
 Berny optimization.
 Initialization pass.
                           ----------------------------
                           !    Initial Parameters    !
                           ! (Angstroms and Degrees)  !
 --------------------------                            --------------------------
 ! Name  Definition              Value          Derivative Info.                !
 --------------------------------------------------------------------------------
 ! R1    R(1,2)                  1.3902         estimate D2E/DX2                !
 ! R2    R(1,6)                  1.3936         estimate D2E/DX2                !
 ! R3    R(1,7)                  1.0817         estimate D2E/DX2                !
 ! R4    R(2,3)                  1.3929         estimate D2E/DX2                !
 ! R5    R(2,8)                  1.0839         estimate D2E/DX2                !
 ! R6    R(3,4)                  1.3973         estimate D2E/DX2                !
 ! R7    R(3,9)                  1.0863         estimate D2E/DX2                !
 ! R8    R(4,5)                  1.398          estimate D2E/DX2                !
 ! R9    R(4,10)                 1.4848         estimate D2E/DX2                !
 ! R10   R(5,6)                  1.3838         estimate D2E/DX2                !
 ! R11   R(5,11)                 1.0819         estimate D2E/DX2                !
 ! R12   R(6,12)                 1.4781         estimate D2E/DX2                !
 ! R13   R(10,15)                1.2066         estimate D2E/DX2                !
 ! R14   R(10,16)                1.1125         estimate D2E/DX2                !
 ! R15   R(12,13)                1.2239         estimate D2E/DX2                !
 ! R16   R(12,14)                1.222          estimate D2E/DX2                !
 ! A1    A(2,1,6)              118.8625         estimate D2E/DX2                !
 ! A2    A(2,1,7)              122.0174         estimate D2E/DX2                !
 ! A3    A(6,1,7)              119.1201         estimate D2E/DX2                !
 ! A4    A(1,2,3)              119.814          estimate D2E/DX2                !
 ! A5    A(1,2,8)              119.8144         estimate D2E/DX2                !
 ! A6    A(3,2,8)              120.3716         estimate D2E/DX2                !
 ! A7    A(2,3,4)              120.576          estimate D2E/DX2                !
 ! A8    A(2,3,9)              120.1356         estimate D2E/DX2                !
 ! A9    A(4,3,9)              119.2883         estimate D2E/DX2                !
 ! A10   A(3,4,5)              119.998          estimate D2E/DX2                !
 ! A11   A(3,4,10)             120.1153         estimate D2E/DX2                !
 ! A12   A(5,4,10)             119.8867         estimate D2E/DX2                !
 ! A13   A(4,5,6)              118.4297         estimate D2E/DX2                !
 ! A14   A(4,5,11)             120.424          estimate D2E/DX2                !
 ! A15   A(6,5,11)             121.1463         estimate D2E/DX2                !
 ! A16   A(1,6,5)              122.3198         estimate D2E/DX2                !
 ! A17   A(1,6,12)             118.6524         estimate D2E/DX2                !
 ! A18   A(5,6,12)             119.0278         estimate D2E/DX2                !
 ! A19   A(4,10,15)            124.3533         estimate D2E/DX2                !
 ! A20   A(4,10,16)            114.3036         estimate D2E/DX2                !
 ! A21   A(15,10,16)           121.3431         estimate D2E/DX2                !
 ! A22   A(6,12,13)            117.3462         estimate D2E/DX2                !
 ! A23   A(6,12,14)            117.4682         estimate D2E/DX2                !
 ! A24   A(13,12,14)           125.1856         estimate D2E/DX2                !
 ! D1    D(6,1,2,3)              0.0            estimate D2E/DX2                !
 ! D2    D(6,1,2,8)            179.9968         estimate D2E/DX2                !
 ! D3    D(7,1,2,3)            179.9981         estimate D2E/DX2                !
 ! D4    D(7,1,2,8)             -0.0051         estimate D2E/DX2                !
 ! D5    D(2,1,6,5)             -0.0023         estimate D2E/DX2                !
 ! D6    D(2,1,6,12)           179.9988         estimate D2E/DX2                !
 ! D7    D(7,1,6,5)            179.9995         estimate D2E/DX2                !
 ! D8    D(7,1,6,12)             0.0006         estimate D2E/DX2                !
 ! D9    D(1,2,3,4)              0.0008         estimate D2E/DX2                !
 ! D10   D(1,2,3,9)           -179.9974         estimate D2E/DX2                !
 ! D11   D(8,2,3,4)           -179.996          estimate D2E/DX2                !
 ! D12   D(8,2,3,9)              0.0057         estimate D2E/DX2                !
 ! D13   D(2,3,4,5)              0.0007         estimate D2E/DX2                !
 ! D14   D(2,3,4,10)           179.9896         estimate D2E/DX2                !
 ! D15   D(9,3,4,5)            179.999          estimate D2E/DX2                !
 ! D16   D(9,3,4,10)            -0.0121         estimate D2E/DX2                !
 ! D17   D(3,4,5,6)             -0.003          estimate D2E/DX2                !
 ! D18   D(3,4,5,11)           179.9977         estimate D2E/DX2                !
 ! D19   D(10,4,5,6)          -179.9919         estimate D2E/DX2                !
 ! D20   D(10,4,5,11)            0.0088         estimate D2E/DX2                !
 ! D21   D(3,4,10,15)         -179.9832         estimate D2E/DX2                !
 ! D22   D(3,4,10,16)            0.0154         estimate D2E/DX2                !
 ! D23   D(5,4,10,15)            0.0057         estimate D2E/DX2                !
 ! D24   D(5,4,10,16)         -179.9957         estimate D2E/DX2                !
 ! D25   D(4,5,6,1)              0.0038         estimate D2E/DX2                !
 ! D26   D(4,5,6,12)          -179.9973         estimate D2E/DX2                !
 ! D27   D(11,5,6,1)          -179.9968         estimate D2E/DX2                !
 ! D28   D(11,5,6,12)            0.002          estimate D2E/DX2                !
 ! D29   D(1,6,12,13)            0.0127         estimate D2E/DX2                !
 ! D30   D(1,6,12,14)          179.9878         estimate D2E/DX2                !
 ! D31   D(5,6,12,13)         -179.9862         estimate D2E/DX2                !
 ! D32   D(5,6,12,14)           -0.0112         estimate D2E/DX2                !
 --------------------------------------------------------------------------------
 Trust Radius=3.00D-01 FncErr=1.00D-07 GrdErr=1.00D-07
 Number of steps in this run=    100 maximum allowed number of steps=    100.
 GradGradGradGradGradGradGradGradGradGradGradGradGradGradGradGradGradGrad

                          Input orientation:                          
 ---------------------------------------------------------------------
 Center     Atomic      Atomic             Coordinates (Angstroms)
 Number     Number       Type             X           Y           Z
 ---------------------------------------------------------------------
      1          6           0        0.000000    0.000000    0.000000
      2          6           0        0.000000    0.000000    1.390187
      3          6           0        1.208543    0.000000    2.082718
      4          6           0        2.423397    0.000017    1.392305
      5          6           0        2.432864    0.000049   -0.005692
      6          6           0        1.220476    0.000001   -0.672696
      7          1           0       -0.917128   -0.000031   -0.573473
      8          1           0       -0.940431    0.000052    1.929090
      9          1           0        1.214641   -0.000042    3.168983
     10          6           0        3.705701    0.000250    2.140865
     11          1           0        3.369479    0.000100   -0.547231
     12          7           0        1.215057   -0.000026   -2.150803
     13          8           0        0.125905    0.000192   -2.709018
     14          8           0        2.297256    0.000207   -2.718447
     15          8           0        4.795934    0.000571    1.623839
     16          1           0        3.589970    0.000127    3.247336
 ---------------------------------------------------------------------
                    Distance matrix (angstroms):
                    1          2          3          4          5
     1  C    0.000000
     2  C    1.390187   0.000000
     3  C    2.407964   1.392902   0.000000
     4  C    2.794882   2.423398   1.397333   0.000000
     5  C    2.432870   2.804871   2.420830   1.398029   0.000000
     6  C    1.393586   2.396883   2.755440   2.389822   1.383755
     7  H    1.081663   2.167275   3.402033   3.876002   3.397767
     8  H    2.146112   1.083895   2.154459   3.406388   3.888766
     9  H    3.393789   2.153943   1.086282   2.148877   3.400386
    10  C    4.279664   3.780970   2.497835   1.484805   2.495560
    11  H    3.413627   3.886769   3.403862   2.157979   1.081903
    12  N    2.470287   3.743657   4.233526   3.743488   2.466689
    13  O    2.711942   4.101138   4.912519   4.700991   3.553875
    14  O    3.559121   4.707255   4.923056   4.112687   2.716143
    15  O    5.063382   4.801623   3.616621   2.383808   2.870448
    16  H    4.840772   4.041892   2.650948   2.191354   3.452692
                    6          7          8          9         10
     6  C    0.000000
     7  H    2.139906   0.000000
     8  H    3.382131   2.502671   0.000000
     9  H    3.841684   4.307019   2.486297   0.000000
    10  C    3.753994   5.360800   4.650956   2.694885   0.000000
    11  H    2.152662   4.286688   4.970663   4.295762   2.709042
    12  N    1.478117   2.652204   4.614288   5.319786   4.962028
    13  O    2.311859   2.376651   4.759109   5.977980   6.027960
    14  O    2.311829   3.864347   5.664116   5.986141   5.059311
    15  O    4.249468   6.121051   5.744482   3.900401   1.206617
    16  H    4.580519   5.908681   4.718295   2.376621   1.112507
                   11         12         13         14         15
    11  H    0.000000
    12  N    2.685699   0.000000
    13  O    3.897960   1.223869   0.000000
    14  O    2.421537   1.222037   2.171371   0.000000
    15  O    2.597753   5.202942   6.370465   5.009874   0.000000
    16  H    3.800968   5.897467   6.890421   6.104234   2.022398
                   16
    16  H    0.000000
 Stoichiometry    C7H5NO3
 Framework group  C1[X(C7H5NO3)]
 Deg. of freedom    42
 Full point group                 C1      NOp   1
 Largest Abelian subgroup         C1      NOp   1
 Largest concise Abelian subgroup C1      NOp   1
                         Standard orientation:                         
 ---------------------------------------------------------------------
 Center     Atomic      Atomic             Coordinates (Angstroms)
 Number     Number       Type             X           Y           Z
 ---------------------------------------------------------------------
      1          6           0       -0.913712    1.522821   -0.000037
      2          6           0        0.276837    2.240604   -0.000059
      3          6           0        1.493914    1.563183    0.000038
      4          6           0        1.529903    0.166313    0.000143
      5          6           0        0.337553   -0.563610    0.000134
      6          6           0       -0.859648    0.130284    0.000084
      7          1           0       -1.878364    2.012148   -0.000079
      8          1           0        0.252785    3.324232   -0.000205
      9          1           0        2.427334    2.118822    0.000063
     10          6           0        2.833047   -0.545348    0.000014
     11          1           0        0.357377   -1.645331    0.000177
     12          7           0       -2.128289   -0.628254    0.000135
     13          8           0       -3.168693    0.016272   -0.000172
     14          8           0       -2.055653   -1.848130    0.000009
     15          8           0        2.953179   -1.745970   -0.000201
     16          1           0        3.720868    0.125058    0.000108
 ---------------------------------------------------------------------
 Rotational constants (GHZ):      1.9704672      0.8060685      0.5720552
 Standard basis: GTBas1 (6D, 7F)
 AO basis set in the form of general basis input (Overlap normalization):
      1 0
 S   6 1.00       0.000000000000
      0.3047524880D+04  0.1834737132D-02
      0.4573695180D+03  0.1403732281D-01
      0.1039486850D+03  0.6884262226D-01
      0.2921015530D+02  0.2321844432D+00
      0.9286662960D+01  0.4679413484D+00
      0.3163926960D+01  0.3623119853D+00
 SP   3 1.00       0.000000000000
      0.7868272350D+01 -0.1193324198D+00  0.6899906659D-01
      0.1881288540D+01 -0.1608541517D+00  0.3164239610D+00
      0.5442492580D+00  0.1143456438D+01  0.7443082909D+00
 SP   1 1.00       0.000000000000
      0.1687144782D+00  0.1000000000D+01  0.1000000000D+01
 D   1 1.00       0.000000000000
      0.8000000000D+00  0.1000000000D+01
 ****
      2 0
 S   6 1.00       0.000000000000
      0.3047524880D+04  0.1834737132D-02
      0.4573695180D+03  0.1403732281D-01
      0.1039486850D+03  0.6884262226D-01
      0.2921015530D+02  0.2321844432D+00
      0.9286662960D+01  0.4679413484D+00
      0.3163926960D+01  0.3623119853D+00
 SP   3 1.00       0.000000000000
      0.7868272350D+01 -0.1193324198D+00  0.6899906659D-01
      0.1881288540D+01 -0.1608541517D+00  0.3164239610D+00
      0.5442492580D+00  0.1143456438D+01  0.7443082909D+00
 SP   1 1.00       0.000000000000
      0.1687144782D+00  0.1000000000D+01  0.1000000000D+01
 D   1 1.00       0.000000000000
      0.8000000000D+00  0.1000000000D+01
 ****
      3 0
 S   6 1.00       0.000000000000
      0.3047524880D+04  0.1834737132D-02
      0.4573695180D+03  0.1403732281D-01
      0.1039486850D+03  0.6884262226D-01
      0.2921015530D+02  0.2321844432D+00
      0.9286662960D+01  0.4679413484D+00
      0.3163926960D+01  0.3623119853D+00
 SP   3 1.00       0.000000000000
      0.7868272350D+01 -0.1193324198D+00  0.6899906659D-01
      0.1881288540D+01 -0.1608541517D+00  0.3164239610D+00
      0.5442492580D+00  0.1143456438D+01  0.7443082909D+00
 SP   1 1.00       0.000000000000
      0.1687144782D+00  0.1000000000D+01  0.1000000000D+01
 D   1 1.00       0.000000000000
      0.8000000000D+00  0.1000000000D+01
 ****
      4 0
 S   6 1.00       0.000000000000
      0.3047524880D+04  0.1834737132D-02
      0.4573695180D+03  0.1403732281D-01
      0.1039486850D+03  0.6884262226D-01
      0.2921015530D+02  0.2321844432D+00
      0.9286662960D+01  0.4679413484D+00
      0.3163926960D+01  0.3623119853D+00
 SP   3 1.00       0.000000000000
      0.7868272350D+01 -0.1193324198D+00  0.6899906659D-01
      0.1881288540D+01 -0.1608541517D+00  0.3164239610D+00
      0.5442492580D+00  0.1143456438D+01  0.7443082909D+00
 SP   1 1.00       0.000000000000
      0.1687144782D+00  0.1000000000D+01  0.1000000000D+01
 D   1 1.00       0.000000000000
      0.8000000000D+00  0.1000000000D+01
 ****
      5 0
 S   6 1.00       0.000000000000
      0.3047524880D+04  0.1834737132D-02
      0.4573695180D+03  0.1403732281D-01
      0.1039486850D+03  0.6884262226D-01
      0.2921015530D+02  0.2321844432D+00
      0.9286662960D+01  0.4679413484D+00
      0.3163926960D+01  0.3623119853D+00
 SP   3 1.00       0.000000000000
      0.7868272350D+01 -0.1193324198D+00  0.6899906659D-01
      0.1881288540D+01 -0.1608541517D+00  0.3164239610D+00
      0.5442492580D+00  0.1143456438D+01  0.7443082909D+00
 SP   1 1.00       0.000000000000
      0.1687144782D+00  0.1000000000D+01  0.1000000000D+01
 D   1 1.00       0.000000000000
      0.8000000000D+00  0.1000000000D+01
 ****
      6 0
 S   6 1.00       0.000000000000
      0.3047524880D+04  0.1834737132D-02
      0.4573695180D+03  0.1403732281D-01
      0.1039486850D+03  0.6884262226D-01
      0.2921015530D+02  0.2321844432D+00
      0.9286662960D+01  0.4679413484D+00
      0.3163926960D+01  0.3623119853D+00
 SP   3 1.00       0.000000000000
      0.7868272350D+01 -0.1193324198D+00  0.6899906659D-01
      0.1881288540D+01 -0.1608541517D+00  0.3164239610D+00
      0.5442492580D+00  0.1143456438D+01  0.7443082909D+00
 SP   1 1.00       0.000000000000
      0.1687144782D+00  0.1000000000D+01  0.1000000000D+01
 D   1 1.00       0.000000000000
      0.8000000000D+00  0.1000000000D+01
 ****
      7 0
 S   3 1.00       0.000000000000
      0.1873113696D+02  0.3349460434D-01
      0.2825394365D+01  0.2347269535D+00
      0.6401216923D+00  0.8137573261D+00
 S   1 1.00       0.000000000000
      0.1612777588D+00  0.1000000000D+01
 ****
      8 0
 S   3 1.00       0.000000000000
      0.1873113696D+02  0.3349460434D-01
      0.2825394365D+01  0.2347269535D+00
      0.6401216923D+00  0.8137573261D+00
 S   1 1.00       0.000000000000
      0.1612777588D+00  0.1000000000D+01
 ****
      9 0
 S   3 1.00       0.000000000000
      0.1873113696D+02  0.3349460434D-01
      0.2825394365D+01  0.2347269535D+00
      0.6401216923D+00  0.8137573261D+00
 S   1 1.00       0.000000000000
      0.1612777588D+00  0.1000000000D+01
 ****
     10 0
 S   6 1.00       0.000000000000
      0.3047524880D+04  0.1834737132D-02
      0.4573695180D+03  0.1403732281D-01
      0.1039486850D+03  0.6884262226D-01
      0.2921015530D+02  0.2321844432D+00
      0.9286662960D+01  0.4679413484D+00
      0.3163926960D+01  0.3623119853D+00
 SP   3 1.00       0.000000000000
      0.7868272350D+01 -0.1193324198D+00  0.6899906659D-01
      0.1881288540D+01 -0.1608541517D+00  0.3164239610D+00
      0.5442492580D+00  0.1143456438D+01  0.7443082909D+00
 SP   1 1.00       0.000000000000
      0.1687144782D+00  0.1000000000D+01  0.1000000000D+01
 D   1 1.00       0.000000000000
      0.8000000000D+00  0.1000000000D+01
 ****
     11 0
 S   3 1.00       0.000000000000
      0.1873113696D+02  0.3349460434D-01
      0.2825394365D+01  0.2347269535D+00
      0.6401216923D+00  0.8137573261D+00
 S   1 1.00       0.000000000000
      0.1612777588D+00  0.1000000000D+01
 ****
     12 0
 S   6 1.00       0.000000000000
      0.4173511460D+04  0.1834772160D-02
      0.6274579110D+03  0.1399462700D-01
      0.1429020930D+03  0.6858655181D-01
      0.4023432930D+02  0.2322408730D+00
      0.1282021290D+02  0.4690699481D+00
      0.4390437010D+01  0.3604551991D+00
 SP   3 1.00       0.000000000000
      0.1162636186D+02 -0.1149611817D+00  0.6757974388D-01
      0.2716279807D+01 -0.1691174786D+00  0.3239072959D+00
      0.7722183966D+00  0.1145851947D+01  0.7408951398D+00
 SP   1 1.00       0.000000000000
      0.2120314975D+00  0.1000000000D+01  0.1000000000D+01
 D   1 1.00       0.000000000000
      0.8000000000D+00  0.1000000000D+01
 ****
     13 0
 S   6 1.00       0.000000000000
      0.5484671660D+04  0.1831074430D-02
      0.8252349460D+03  0.1395017220D-01
      0.1880469580D+03  0.6844507810D-01
      0.5296450000D+02  0.2327143360D+00
      0.1689757040D+02  0.4701928980D+00
      0.5799635340D+01  0.3585208530D+00
 SP   3 1.00       0.000000000000
      0.1553961625D+02 -0.1107775495D+00  0.7087426823D-01
      0.3599933586D+01 -0.1480262627D+00  0.3397528391D+00
      0.1013761750D+01  0.1130767015D+01  0.7271585773D+00
 SP   1 1.00       0.000000000000
      0.2700058226D+00  0.1000000000D+01  0.1000000000D+01
 D   1 1.00       0.000000000000
      0.8000000000D+00  0.1000000000D+01
 ****
     14 0
 S   6 1.00       0.000000000000
      0.5484671660D+04  0.1831074430D-02
      0.8252349460D+03  0.1395017220D-01
      0.1880469580D+03  0.6844507810D-01
      0.5296450000D+02  0.2327143360D+00
      0.1689757040D+02  0.4701928980D+00
      0.5799635340D+01  0.3585208530D+00
 SP   3 1.00       0.000000000000
      0.1553961625D+02 -0.1107775495D+00  0.7087426823D-01
      0.3599933586D+01 -0.1480262627D+00  0.3397528391D+00
      0.1013761750D+01  0.1130767015D+01  0.7271585773D+00
 SP   1 1.00       0.000000000000
      0.2700058226D+00  0.1000000000D+01  0.1000000000D+01
 D   1 1.00       0.000000000000
      0.8000000000D+00  0.1000000000D+01
 ****
     15 0
 S   6 1.00       0.000000000000
      0.5484671660D+04  0.1831074430D-02
      0.8252349460D+03  0.1395017220D-01
      0.1880469580D+03  0.6844507810D-01
      0.5296450000D+02  0.2327143360D+00
      0.1689757040D+02  0.4701928980D+00
      0.5799635340D+01  0.3585208530D+00
 SP   3 1.00       0.000000000000
      0.1553961625D+02 -0.1107775495D+00  0.7087426823D-01
      0.3599933586D+01 -0.1480262627D+00  0.3397528391D+00
      0.1013761750D+01  0.1130767015D+01  0.7271585773D+00
 SP   1 1.00       0.000000000000
      0.2700058226D+00  0.1000000000D+01  0.1000000000D+01
 D   1 1.00       0.000000000000
      0.8000000000D+00  0.1000000000D+01
 ****
     16 0
 S   3 1.00       0.000000000000
      0.1873113696D+02  0.3349460434D-01
      0.2825394365D+01  0.2347269535D+00
      0.6401216923D+00  0.8137573261D+00
 S   1 1.00       0.000000000000
      0.1612777588D+00  0.1000000000D+01
 ****

 There are   175 symmetry adapted basis functions of A   symmetry.
 Integral buffers will be    131072 words long.
 Raffenetti 1 integral format.
 Two-electron integral symmetry is turned on.
   175 basis functions,   328 primitive gaussians,   175 cartesian basis functions
    39 alpha electrons       39 beta electrons
       nuclear repulsion energy       559.8235702391 Hartrees.
 NAtoms=   16 NActive=   16 NUniq=   16 SFac= 1.00D+00 NAtFMM=   50 NAOKFM=F Big=F
 One-electron integrals computed using PRISM.
 NBasis=   175 RedAO= T  NBF=   175
 NBsUse=   175 1.00D-06 NBFU=   175
 Harris functional with IExCor=  205 diagonalized for initial guess.
 ExpMin= 1.61D-01 ExpMax= 5.48D+03 ExpMxC= 8.25D+02 IAcc=1 IRadAn=         1 AccDes= 0.00D+00
 HarFok:  IExCor=  205 AccDes= 0.00D+00 IRadAn=         1 IDoV= 1
 ScaDFX=  1.000000  1.000000  1.000000  1.000000
 FoFCou: FMM=F IPFlag=           0 FMFlag=      100000 FMFlg1=           0
         NFxFlg=           0 DoJE=T BraDBF=F KetDBF=T FulRan=T
         Omega=  0.000000  0.000000  1.000000  0.000000  0.000000 ICntrl=     500 IOpCl=  0
         NMat0=    1 NMatS0=    1 NMatT0=    0 NMatD0=    1 NMtDS0=    0 NMtDT0=    0
         I1Cent=           4 NGrid=           0.
 Petite list used in FoFCou.
 Initial guess orbital symmetries:
       Occupied  (A) (A) (A) (A) (A) (A) (A) (A) (A) (A) (A) (A)
                 (A) (A) (A) (A) (A) (A) (A) (A) (A) (A) (A) (A)
                 (A) (A) (A) (A) (A) (A) (A) (A) (A) (A) (A) (A)
                 (A) (A) (A)
       Virtual   (A) (A) (A) (A) (A) (A) (A) (A) (A) (A) (A) (A)
                 (A) (A) (A) (A) (A) (A) (A) (A) (A) (A) (A) (A)
                 (A) (A) (A) (A) (A) (A) (A) (A) (A) (A) (A) (A)
                 (A) (A) (A) (A) (A) (A) (A) (A) (A) (A) (A) (A)
                 (A) (A) (A) (A) (A) (A) (A) (A) (A) (A) (A) (A)
                 (A) (A) (A) (A) (A) (A) (A) (A) (A) (A) (A) (A)
                 (A) (A) (A) (A) (A) (A) (A) (A) (A) (A) (A) (A)
                 (A) (A) (A) (A) (A) (A) (A) (A) (A) (A) (A) (A)
                 (A) (A) (A) (A) (A) (A) (A) (A) (A) (A) (A) (A)
                 (A) (A) (A) (A) (A) (A) (A) (A) (A) (A) (A) (A)
                 (A) (A) (A) (A) (A) (A) (A) (A) (A) (A) (A) (A)
                 (A) (A) (A) (A)
 The electronic state of the initial guess is 1-A.
 Requested convergence on RMS density matrix=1.00D-08 within 600 cycles.
 Requested convergence on MAX density matrix=1.00D-06.
 Requested convergence on             energy=1.00D-06.
 No special actions if energy rises.
 Keep R1 ints in memory in canonical form, NReq=121771872.
 SCF Done:  E(RHF) =  -546.896775840     A.U. after   15 cycles
             Convg  =    0.6377D-08             -V/T =  2.0028

 **********************************************************************

            Population analysis using the SCF density.

 **********************************************************************

 Orbital symmetries:
       Occupied  (A) (A) (A) (A) (A) (A) (A) (A) (A) (A) (A) (A)
                 (A) (A) (A) (A) (A) (A) (A) (A) (A) (A) (A) (A)
                 (A) (A) (A) (A) (A) (A) (A) (A) (A) (A) (A) (A)
                 (A) (A) (A)
       Virtual   (A) (A) (A) (A) (A) (A) (A) (A) (A) (A) (A) (A)
                 (A) (A) (A) (A) (A) (A) (A) (A) (A) (A) (A) (A)
                 (A) (A) (A) (A) (A) (A) (A) (A) (A) (A) (A) (A)
                 (A) (A) (A) (A) (A) (A) (A) (A) (A) (A) (A) (A)
                 (A) (A) (A) (A) (A) (A) (A) (A) (A) (A) (A) (A)
                 (A) (A) (A) (A) (A) (A) (A) (A) (A) (A) (A) (A)
                 (A) (A) (A) (A) (A) (A) (A) (A) (A) (A) (A) (A)
                 (A) (A) (A) (A) (A) (A) (A) (A) (A) (A) (A) (A)
                 (A) (A) (A) (A) (A) (A) (A) (A) (A) (A) (A) (A)
                 (A) (A) (A) (A) (A) (A) (A) (A) (A) (A) (A) (A)
                 (A) (A) (A) (A) (A) (A) (A) (A) (A) (A) (A) (A)
                 (A) (A) (A) (A)
 The electronic state is 1-A.
 Alpha  occ. eigenvalues --  -20.61637 -20.61542 -20.58535 -15.86758 -11.35895
 Alpha  occ. eigenvalues --  -11.32421 -11.29698 -11.29612 -11.29406 -11.28247
 Alpha  occ. eigenvalues --  -11.28151  -1.61355  -1.41319  -1.40710  -1.21569
 Alpha  occ. eigenvalues --   -1.11148  -1.07565  -0.97427  -0.92392  -0.85038
 Alpha  occ. eigenvalues --   -0.81782  -0.77925  -0.73123  -0.72466  -0.72270
 Alpha  occ. eigenvalues --   -0.69409  -0.66757  -0.64686  -0.64016  -0.57658
 Alpha  occ. eigenvalues --   -0.57572  -0.55497  -0.52808  -0.49899  -0.49700
 Alpha  occ. eigenvalues --   -0.45654  -0.44582  -0.39152  -0.37898
 Alpha virt. eigenvalues --    0.03855   0.06030   0.14392   0.20283   0.21263
 Alpha virt. eigenvalues --    0.24229   0.28788   0.29109   0.31507   0.34537
 Alpha virt. eigenvalues --    0.35298   0.39879   0.41356   0.44832   0.46577
 Alpha virt. eigenvalues --    0.49108   0.49580   0.56245   0.62481   0.65464
 Alpha virt. eigenvalues --    0.68102   0.69413   0.69513   0.73180   0.73341
 Alpha virt. eigenvalues --    0.77086   0.77523   0.78908   0.79229   0.82003
 Alpha virt. eigenvalues --    0.82473   0.84953   0.86283   0.89744   0.92659
 Alpha virt. eigenvalues --    0.96009   0.98022   1.00116   1.00277   1.01484
 Alpha virt. eigenvalues --    1.03941   1.05046   1.05749   1.06425   1.09126
 Alpha virt. eigenvalues --    1.10010   1.15145   1.16093   1.18180   1.19822
 Alpha virt. eigenvalues --    1.22465   1.22741   1.27510   1.27564   1.28080
 Alpha virt. eigenvalues --    1.29748   1.32492   1.34633   1.36986   1.43401
 Alpha virt. eigenvalues --    1.45033   1.48752   1.51182   1.51507   1.53949
 Alpha virt. eigenvalues --    1.54736   1.62365   1.64436   1.67620   1.69088
 Alpha virt. eigenvalues --    1.70138   1.70898   1.71740   1.74685   1.79815
 Alpha virt. eigenvalues --    1.84952   1.96736   1.97285   1.97527   2.01880
 Alpha virt. eigenvalues --    2.02217   2.05626   2.06532   2.09332   2.11301
 Alpha virt. eigenvalues --    2.13693   2.15121   2.20614   2.22375   2.24244
 Alpha virt. eigenvalues --    2.26448   2.29823   2.31738   2.34430   2.37502
 Alpha virt. eigenvalues --    2.42464   2.43447   2.45620   2.46542   2.49527
 Alpha virt. eigenvalues --    2.56831   2.57459   2.60390   2.64077   2.68732
 Alpha virt. eigenvalues --    2.71813   2.79941   2.82922   2.88823   2.94011
 Alpha virt. eigenvalues --    2.94854   2.96138   2.97930   3.04817   3.05784
 Alpha virt. eigenvalues --    3.10958   3.13410   3.20581   3.24010   3.25954
 Alpha virt. eigenvalues --    3.32419   3.43036   3.43862   3.54614   3.78600
 Alpha virt. eigenvalues --    4.13045   4.28596   4.30873   4.38882   4.47177
 Alpha virt. eigenvalues --    4.49749   4.51688   4.61417   4.73436   4.80551
 Alpha virt. eigenvalues --    5.11532
     Molecular Orbital Coefficients:
                           1         2         3         4         5
                           O         O         O         O         O
     Eigenvalues --   -20.61637 -20.61542 -20.58535 -15.86758 -11.35895
   1 1   C  1S          0.00000   0.00000   0.00000  -0.00001   0.00002
   2        2S         -0.00001   0.00005   0.00000  -0.00007   0.00007
   3        2PX        -0.00001   0.00001   0.00000   0.00000  -0.00001
   4        2PY        -0.00002   0.00001   0.00001  -0.00001  -0.00004
   5        2PZ         0.00000   0.00000   0.00000   0.00000   0.00000
   6        3S          0.00036  -0.00051   0.00000   0.00115  -0.00125
   7        3PX        -0.00004  -0.00014   0.00011   0.00130  -0.00108
   8        3PY        -0.00018   0.00063   0.00001  -0.00017   0.00038
   9        3PZ         0.00000   0.00000   0.00000   0.00000   0.00000
  10        4XX         0.00000  -0.00001   0.00000   0.00002   0.00000
  11        4YY         0.00002  -0.00005   0.00000  -0.00001   0.00001
  12        4ZZ         0.00000   0.00001   0.00000  -0.00004   0.00002
  13        4XY        -0.00001   0.00001   0.00000  -0.00006   0.00000
  14        4XZ         0.00000   0.00000   0.00000   0.00000   0.00000
  15        4YZ         0.00000   0.00000   0.00000   0.00000   0.00000
  16 2   C  1S          0.00000   0.00000   0.00000  -0.00001  -0.00003
  17        2S          0.00002   0.00000   0.00002  -0.00002  -0.00021
  18        2PX         0.00000  -0.00001   0.00000   0.00003   0.00006
  19        2PY        -0.00001   0.00000   0.00000   0.00004  -0.00002
  20        2PZ         0.00000   0.00000   0.00000   0.00000   0.00000
  21        3S         -0.00013  -0.00002  -0.00029  -0.00085   0.00319
  22        3PX        -0.00006   0.00020  -0.00006   0.00022   0.00057
  23        3PY         0.00014  -0.00014   0.00012   0.00013  -0.00174
  24        3PZ         0.00000   0.00000   0.00000   0.00000   0.00000
  25        4XX         0.00000   0.00000   0.00000  -0.00001   0.00003
  26        4YY         0.00000   0.00001   0.00000   0.00000   0.00001
  27        4ZZ         0.00001   0.00000   0.00001  -0.00002  -0.00006
  28        4XY         0.00000   0.00000   0.00000   0.00000  -0.00004
  29        4XZ         0.00000   0.00000   0.00000   0.00000   0.00000
  30        4YZ         0.00000   0.00000   0.00000   0.00000   0.00000
  31 3   C  1S          0.00000   0.00000   0.00000  -0.00001  -0.00001
  32        2S          0.00000   0.00000   0.00001  -0.00002   0.00004
  33        2PX        -0.00001   0.00000   0.00001   0.00002  -0.00016
  34        2PY         0.00001  -0.00001  -0.00002   0.00002   0.00011
  35        2PZ         0.00000   0.00000   0.00000   0.00000   0.00000
  36        3S         -0.00006  -0.00009   0.00020  -0.00006  -0.00416
  37        3PX        -0.00006   0.00001  -0.00022  -0.00014   0.00231
  38        3PY         0.00010  -0.00009   0.00003   0.00000   0.00084
  39        3PZ         0.00000   0.00000   0.00000   0.00000   0.00000
  40        4XX         0.00000   0.00000   0.00000  -0.00001  -0.00002
  41        4YY        -0.00001   0.00000   0.00001  -0.00001   0.00005
  42        4ZZ         0.00000   0.00000   0.00000  -0.00002  -0.00001
  43        4XY         0.00000   0.00001   0.00001  -0.00001   0.00004
  44        4XZ         0.00000   0.00000   0.00000   0.00000   0.00000
  45        4YZ         0.00000   0.00000   0.00000   0.00000   0.00000
  46 4   C  1S          0.00000   0.00000   0.00000   0.00000   0.00449
  47        2S          0.00001   0.00002   0.00000   0.00001   0.00028
  48        2PX        -0.00001  -0.00001  -0.00001   0.00006  -0.00010
  49        2PY        -0.00001   0.00000   0.00002  -0.00002  -0.00008
  50        2PZ         0.00000   0.00000   0.00000   0.00000   0.00000
  51        3S         -0.00003  -0.00012  -0.00010  -0.00113   0.00354
  52        3PX        -0.00002   0.00024  -0.00006   0.00001   0.00069
  53        3PY         0.00026  -0.00008  -0.00013   0.00059   0.00282
  54        3PZ         0.00000   0.00000   0.00000   0.00000   0.00000
  55        4XX         0.00001   0.00000   0.00007  -0.00002  -0.00064
  56        4YY         0.00000   0.00000  -0.00006   0.00000  -0.00030
  57        4ZZ         0.00001   0.00001  -0.00002  -0.00001  -0.00014
  58        4XY         0.00000   0.00000   0.00004   0.00001   0.00015
  59        4XZ         0.00000   0.00000   0.00000   0.00000   0.00000
  60        4YZ         0.00000   0.00000   0.00000   0.00000   0.00000
  61 5   C  1S          0.00000   0.00000   0.00000  -0.00001   0.00000
  62        2S          0.00004  -0.00001  -0.00002  -0.00008  -0.00008
  63        2PX         0.00001  -0.00002   0.00000  -0.00001  -0.00003
  64        2PY         0.00000   0.00000   0.00000   0.00000   0.00006
  65        2PZ         0.00000   0.00000   0.00000   0.00000   0.00000
  66        3S         -0.00054   0.00048   0.00028   0.00136  -0.00054
  67        3PX         0.00054  -0.00013  -0.00025   0.00053   0.00192
  68        3PY        -0.00041   0.00010  -0.00001   0.00119  -0.00112
  69        3PZ         0.00000   0.00000   0.00000   0.00000   0.00000
  70        4XX        -0.00004   0.00001  -0.00001  -0.00004   0.00010
  71        4YY        -0.00003   0.00001  -0.00002   0.00004   0.00004
  72        4ZZ         0.00001   0.00000  -0.00001  -0.00004  -0.00002
  73        4XY         0.00003  -0.00001  -0.00003  -0.00002   0.00009
  74        4XZ         0.00000   0.00000   0.00000   0.00000   0.00000
  75        4YZ         0.00000   0.00000   0.00000   0.00000   0.00000
  76 6   C  1S         -0.00001  -0.00001   0.00000   0.00000  -0.00001
  77        2S         -0.00002  -0.00002   0.00002   0.00014  -0.00013
  78        2PX         0.00002   0.00005   0.00000  -0.00013   0.00001
  79        2PY         0.00005  -0.00001   0.00000  -0.00008   0.00002
  80        2PZ         0.00000   0.00000   0.00000   0.00000   0.00000
  81        3S          0.00015   0.00006  -0.00027   0.00125   0.00262
  82        3PX         0.00083   0.00005  -0.00017  -0.00309   0.00114
  83        3PY        -0.00042   0.00090   0.00018  -0.00180  -0.00042
  84        3PZ         0.00000   0.00000   0.00000   0.00000   0.00000
  85        4XX         0.00004  -0.00011   0.00000   0.00005   0.00002
  86        4YY        -0.00007   0.00006   0.00000  -0.00002   0.00001
  87        4ZZ        -0.00003  -0.00003   0.00001  -0.00007  -0.00004
  88        4XY        -0.00008   0.00000   0.00001   0.00009  -0.00001
  89        4XZ         0.00000   0.00000   0.00000   0.00000   0.00000
  90        4YZ         0.00000   0.00000   0.00000   0.00000   0.00000
  91 7   H  1S          0.00000   0.00002   0.00001   0.00006  -0.00006
  92        2S         -0.00001  -0.00030   0.00003   0.00038  -0.00030
  93 8   H  1S         -0.00001   0.00001   0.00000   0.00002   0.00002
  94        2S         -0.00005   0.00005  -0.00003   0.00006   0.00043
  95 9   H  1S          0.00000   0.00001   0.00002   0.00002  -0.00015
  96        2S          0.00000   0.00002   0.00003   0.00004  -0.00063
  97 10  C  1S          0.00000   0.00000  -0.00001  -0.00001   0.99575
  98        2S          0.00001   0.00001   0.00043  -0.00004   0.02672
  99        2PX        -0.00001   0.00000   0.00000  -0.00001  -0.00017
 100        2PY        -0.00001   0.00000   0.00012   0.00000  -0.00061
 101        2PZ         0.00000   0.00000   0.00000   0.00000   0.00000
 102        3S          0.00007  -0.00012  -0.00038   0.00054  -0.00638
 103        3PX        -0.00001   0.00005  -0.00009  -0.00033  -0.00009
 104        3PY         0.00000  -0.00008   0.00070  -0.00006  -0.00383
 105        3PZ         0.00000   0.00000   0.00000   0.00000   0.00000
 106        4XX         0.00000   0.00000  -0.00006   0.00002  -0.00178
 107        4YY         0.00000   0.00000  -0.00083   0.00000  -0.00084
 108        4ZZ         0.00001   0.00000  -0.00003  -0.00002  -0.00247
 109        4XY         0.00000   0.00000   0.00010  -0.00001  -0.00020
 110        4XZ         0.00000   0.00000   0.00000   0.00000   0.00000
 111        4YZ         0.00000   0.00000   0.00000   0.00000   0.00000
 112 11  H  1S          0.00002   0.00000   0.00002   0.00006  -0.00013
 113        2S         -0.00029  -0.00001  -0.00013   0.00034  -0.00042
 114 12  N  1S          0.00003   0.00003   0.00000   0.99528   0.00000
 115        2S          0.00035   0.00037   0.00000   0.02425   0.00001
 116        2PX         0.00002  -0.00011   0.00000  -0.00032   0.00000
 117        2PY        -0.00013   0.00008   0.00000  -0.00019   0.00000
 118        2PZ         0.00000   0.00000   0.00000   0.00000   0.00000
 119        3S         -0.00002   0.00000   0.00006  -0.00388  -0.00023
 120        3PX         0.00015   0.00083   0.00003  -0.00165  -0.00014
 121        3PY         0.00085  -0.00023  -0.00007  -0.00105   0.00016
 122        3PZ         0.00000   0.00000   0.00000   0.00000   0.00000
 123        4XX         0.00002  -0.00057   0.00000  -0.00293  -0.00002
 124        4YY        -0.00088  -0.00032   0.00000  -0.00265   0.00000
 125        4ZZ         0.00000   0.00000   0.00000  -0.00329   0.00001
 126        4XY         0.00013   0.00051   0.00000  -0.00029   0.00001
 127        4XZ         0.00000   0.00000   0.00000   0.00000   0.00000
 128        4YZ         0.00000   0.00000   0.00000   0.00000   0.00000
 129 13  O  1S         -0.02707   0.99436   0.00000  -0.00019   0.00000
 130        2S         -0.00063   0.02097   0.00000   0.00020  -0.00001
 131        2PX        -0.00002   0.00156   0.00000   0.00013   0.00000
 132        2PY         0.00007  -0.00092   0.00000  -0.00010   0.00000
 133        2PZ         0.00000   0.00000   0.00000   0.00000   0.00000
 134        3S         -0.00001   0.00438   0.00001   0.00002   0.00002
 135        3PX         0.00012  -0.00009   0.00000  -0.00002   0.00003
 136        3PY        -0.00007   0.00005   0.00000   0.00024   0.00000
 137        3PZ         0.00000   0.00000   0.00000   0.00000   0.00000
 138        4XX         0.00025  -0.00367   0.00000  -0.00020   0.00000
 139        4YY         0.00000  -0.00376   0.00000  -0.00011  -0.00001
 140        4ZZ         0.00001  -0.00403   0.00000   0.00014  -0.00001
 141        4XY         0.00001  -0.00006   0.00000   0.00016  -0.00001
 142        4XZ         0.00000   0.00000   0.00000   0.00000   0.00000
 143        4YZ         0.00000   0.00000   0.00000   0.00000   0.00000
 144 14  O  1S          0.99436   0.02706   0.00000  -0.00019  -0.00002
 145        2S          0.02097   0.00051   0.00001   0.00020  -0.00007
 146        2PX        -0.00008   0.00005   0.00000  -0.00003  -0.00002
 147        2PY         0.00182   0.00005   0.00000   0.00016   0.00000
 148        2PZ         0.00000   0.00000   0.00000   0.00000   0.00000
 149        3S          0.00438   0.00022  -0.00007  -0.00004   0.00039
 150        3PX         0.00000   0.00000   0.00000   0.00021   0.00009
 151        3PY        -0.00011   0.00013  -0.00004  -0.00017   0.00012
 152        3PZ         0.00000   0.00000   0.00000   0.00000   0.00000
 153        4XX        -0.00378  -0.00014   0.00001  -0.00001  -0.00005
 154        4YY        -0.00364  -0.00001   0.00000  -0.00029  -0.00004
 155        4ZZ        -0.00402  -0.00021   0.00000   0.00014  -0.00006
 156        4XY         0.00000   0.00013   0.00000   0.00005   0.00001
 157        4XZ         0.00000   0.00000   0.00000   0.00000   0.00000
 158        4YZ         0.00000   0.00000   0.00000   0.00000   0.00000
 159 15  O  1S          0.00000   0.00000   0.99469   0.00001  -0.00030
 160        2S          0.00001   0.00001   0.02095   0.00002   0.00070
 161        2PX         0.00000   0.00000  -0.00018   0.00000  -0.00003
 162        2PY         0.00000   0.00000   0.00158   0.00000   0.00031
 163        2PZ         0.00000   0.00000   0.00000   0.00000   0.00000
 164        3S         -0.00003  -0.00005   0.00478  -0.00019  -0.00368
 165        3PX         0.00000  -0.00001   0.00000   0.00006   0.00019
 166        3PY        -0.00002  -0.00001   0.00007  -0.00005  -0.00190
 167        3PZ         0.00000   0.00000   0.00000   0.00000   0.00000
 168        4XX         0.00000   0.00000  -0.00392   0.00002   0.00022
 169        4YY         0.00000   0.00000  -0.00356   0.00001   0.00004
 170        4ZZ         0.00001   0.00000  -0.00423   0.00001   0.00045
 171        4XY         0.00000   0.00000  -0.00004   0.00001   0.00000
 172        4XZ         0.00000   0.00000   0.00000   0.00000   0.00000
 173        4YZ         0.00000   0.00000   0.00000   0.00000   0.00000
 174 16  H  1S          0.00000   0.00001  -0.00003   0.00000   0.00003
 175        2S          0.00000   0.00001  -0.00012   0.00008   0.00252
                           6         7         8         9        10
                           O         O         O         O         O
     Eigenvalues --   -11.32421 -11.29698 -11.29612 -11.29406 -11.28247
   1 1   C  1S          0.02078   0.02377   0.99428   0.00904   0.00192
   2        2S          0.00023   0.00067   0.02779   0.00024  -0.00003
   3        2PX        -0.00006  -0.00001   0.00034  -0.00002  -0.00002
   4        2PY         0.00011  -0.00001  -0.00040   0.00000   0.00002
   5        2PZ         0.00000   0.00000   0.00000   0.00000   0.00000
   6        3S          0.00686  -0.00323  -0.01536  -0.00273   0.00141
   7        3PX         0.00291  -0.00163  -0.00285  -0.00114   0.00115
   8        3PY        -0.00233   0.00078   0.00190   0.00082  -0.00022
   9        3PZ         0.00000   0.00000   0.00000   0.00000   0.00000
  10        4XX        -0.00029   0.00007  -0.00165   0.00005  -0.00001
  11        4YY        -0.00047  -0.00001  -0.00153   0.00012  -0.00002
  12        4ZZ        -0.00023  -0.00003  -0.00238  -0.00001  -0.00005
  13        4XY        -0.00012   0.00003   0.00013  -0.00003   0.00000
  14        4XZ         0.00000   0.00000   0.00000   0.00000   0.00000
  15        4YZ         0.00000   0.00000   0.00000   0.00000   0.00000
  16 2   C  1S          0.00023   0.03890   0.03997  -0.00080  -0.02837
  17        2S          0.00001   0.00080   0.00084  -0.00016  -0.00081
  18        2PX         0.00003  -0.00014   0.00013   0.00001   0.00001
  19        2PY         0.00004   0.00012   0.00013   0.00004   0.00001
  20        2PZ         0.00000   0.00000   0.00000   0.00000   0.00000
  21        3S         -0.00352   0.00648   0.00607   0.00224  -0.00186
  22        3PX         0.00008   0.00115  -0.00106   0.00010   0.00013
  23        3PY         0.00156  -0.00279  -0.00278  -0.00139   0.00105
  24        3PZ         0.00000   0.00000   0.00000   0.00000   0.00000
  25        4XX         0.00007  -0.00057  -0.00054   0.00000   0.00015
  26        4YY         0.00009  -0.00037  -0.00038  -0.00002   0.00016
  27        4ZZ         0.00001  -0.00024  -0.00024  -0.00006   0.00009
  28        4XY         0.00005   0.00008  -0.00010  -0.00001  -0.00006
  29        4XZ         0.00000   0.00000   0.00000   0.00000   0.00000
  30        4YZ         0.00000   0.00000   0.00000   0.00000   0.00000
  31 3   C  1S         -0.00042   0.99378  -0.02519  -0.00871  -0.03933
  32        2S         -0.00019   0.02767  -0.00069  -0.00025  -0.00125
  33        2PX         0.00004  -0.00020   0.00003   0.00001   0.00004
  34        2PY         0.00004  -0.00016   0.00000   0.00004   0.00021
  35        2PZ         0.00000   0.00000   0.00000   0.00000   0.00000
  36        3S          0.00204  -0.01525  -0.00256  -0.00262   0.00569
  37        3PX        -0.00153   0.00276   0.00130   0.00137  -0.00093
  38        3PY        -0.00051   0.00168   0.00079   0.00078  -0.00209
  39        3PZ         0.00000   0.00000   0.00000   0.00000   0.00000
  40        4XX        -0.00001  -0.00167   0.00016   0.00005  -0.00023
  41        4YY        -0.00002  -0.00156   0.00006   0.00010  -0.00050
  42        4ZZ        -0.00008  -0.00235   0.00008   0.00004  -0.00003
  43        4XY         0.00000  -0.00017  -0.00001   0.00003   0.00005
  44        4XZ         0.00000   0.00000   0.00000   0.00000   0.00000
  45        4YZ         0.00000   0.00000   0.00000   0.00000   0.00000
  46 4   C  1S          0.00025   0.04020  -0.00225   0.04945   0.99324
  47        2S          0.00004   0.00086  -0.00019   0.00119   0.02800
  48        2PX         0.00003   0.00005   0.00006   0.00019  -0.00009
  49        2PY        -0.00004  -0.00017  -0.00003   0.00005   0.00004
  50        2PZ         0.00000   0.00000   0.00000   0.00000   0.00000
  51        3S         -0.00373   0.00646   0.00192   0.00567  -0.01647
  52        3PX         0.00172  -0.00223  -0.00142  -0.00352   0.00174
  53        3PY         0.00033   0.00223   0.00104   0.00066  -0.00013
  54        3PZ         0.00000   0.00000   0.00000   0.00000   0.00000
  55        4XX         0.00010  -0.00038  -0.00001  -0.00054  -0.00157
  56        4YY         0.00005  -0.00059   0.00003  -0.00047  -0.00146
  57        4ZZ         0.00003  -0.00024  -0.00005  -0.00025  -0.00226
  58        4XY         0.00002  -0.00005   0.00001  -0.00012   0.00009
  59        4XZ         0.00000   0.00000   0.00000   0.00000   0.00000
  60        4YZ         0.00000   0.00000   0.00000   0.00000   0.00000
  61 5   C  1S          0.02040   0.00652  -0.00950   0.99414  -0.05033
  62        2S          0.00012   0.00020  -0.00026   0.02785  -0.00165
  63        2PX         0.00010  -0.00001  -0.00001  -0.00016  -0.00014
  64        2PY        -0.00011  -0.00001  -0.00002   0.00058  -0.00017
  65        2PZ         0.00000   0.00000   0.00000   0.00000   0.00000
  66        3S          0.00810  -0.00325  -0.00258  -0.01571   0.00770
  67        3PX        -0.00068  -0.00009   0.00035   0.00041   0.00127
  68        3PY         0.00387  -0.00195  -0.00150  -0.00376   0.00249
  69        3PZ         0.00000   0.00000   0.00000   0.00000   0.00000
  70        4XX        -0.00045   0.00005   0.00012  -0.00147  -0.00041
  71        4YY        -0.00025   0.00006   0.00011  -0.00172  -0.00026
  72        4ZZ        -0.00024   0.00001   0.00004  -0.00239  -0.00002
  73        4XY         0.00000   0.00004  -0.00005  -0.00003  -0.00011
  74        4XZ         0.00000   0.00000   0.00000   0.00000   0.00000
  75        4YZ         0.00000   0.00000   0.00000   0.00000   0.00000
  76 6   C  1S          0.99522  -0.00031  -0.02115  -0.02120   0.00080
  77        2S          0.02760  -0.00019  -0.00081  -0.00084   0.00002
  78        2PX        -0.00065  -0.00004  -0.00002  -0.00019   0.00004
  79        2PY        -0.00038  -0.00003  -0.00019   0.00007  -0.00003
  80        2PZ         0.00000   0.00000   0.00000   0.00000   0.00000
  81        3S         -0.01323   0.00274   0.00745   0.00766  -0.00246
  82        3PX        -0.00531   0.00176   0.00146   0.00279  -0.00165
  83        3PY        -0.00281   0.00106   0.00221   0.00013  -0.00001
  84        3PZ         0.00000   0.00000   0.00000   0.00000   0.00000
  85        4XX        -0.00151  -0.00003  -0.00028  -0.00045   0.00017
  86        4YY        -0.00150  -0.00002  -0.00055  -0.00039   0.00008
  87        4ZZ        -0.00228  -0.00007  -0.00010  -0.00010   0.00004
  88        4XY        -0.00001  -0.00001   0.00006   0.00015  -0.00002
  89        4XZ         0.00000   0.00000   0.00000   0.00000   0.00000
  90        4YZ         0.00000   0.00000   0.00000   0.00000   0.00000
  91 7   H  1S          0.00007  -0.00006  -0.00021  -0.00002   0.00005
  92        2S          0.00079  -0.00030   0.00111  -0.00022   0.00031
  93 8   H  1S         -0.00002  -0.00001   0.00001   0.00005  -0.00002
  94        2S         -0.00018   0.00051   0.00052   0.00034  -0.00019
  95 9   H  1S          0.00007  -0.00023  -0.00004  -0.00003  -0.00002
  96        2S          0.00043   0.00123  -0.00031  -0.00034   0.00009
  97 10  C  1S         -0.00003  -0.00017   0.00001  -0.00024  -0.00483
  98        2S         -0.00007  -0.00014  -0.00001  -0.00015  -0.00001
  99        2PX         0.00000  -0.00002  -0.00003   0.00001   0.00012
 100        2PY         0.00001  -0.00002   0.00000   0.00003  -0.00002
 101        2PZ         0.00000   0.00000   0.00000   0.00000   0.00000
 102        3S          0.00019   0.00059   0.00073   0.00110   0.00341
 103        3PX        -0.00035  -0.00002  -0.00029  -0.00060  -0.00134
 104        3PY        -0.00033   0.00051   0.00000   0.00015  -0.00002
 105        3PZ         0.00000   0.00000   0.00000   0.00000   0.00000
 106        4XX         0.00002   0.00002   0.00002   0.00008  -0.00053
 107        4YY        -0.00003   0.00005   0.00002   0.00002  -0.00035
 108        4ZZ        -0.00003  -0.00003   0.00000  -0.00003  -0.00012
 109        4XY         0.00001  -0.00004   0.00000   0.00000   0.00022
 110        4XZ         0.00000   0.00000   0.00000   0.00000   0.00000
 111        4YZ         0.00000   0.00000   0.00000   0.00000   0.00000
 112 11  H  1S          0.00006  -0.00006  -0.00002  -0.00021  -0.00001
 113        2S          0.00074  -0.00040  -0.00031   0.00098   0.00010
 114 12  N  1S         -0.00013  -0.00002   0.00002   0.00002   0.00000
 115        2S          0.00062  -0.00007  -0.00006  -0.00005   0.00002
 116        2PX         0.00017   0.00000   0.00001  -0.00002   0.00000
 117        2PY         0.00011   0.00000  -0.00003   0.00002   0.00001
 118        2PZ         0.00000   0.00000   0.00000   0.00000   0.00000
 119        3S         -0.00120   0.00083  -0.00033  -0.00030  -0.00041
 120        3PX        -0.00251   0.00024  -0.00011  -0.00001   0.00016
 121        3PY        -0.00176   0.00015   0.00013  -0.00011  -0.00037
 122        3PZ         0.00000   0.00000   0.00000   0.00000   0.00000
 123        4XX        -0.00061  -0.00002   0.00006   0.00012  -0.00001
 124        4YY        -0.00031  -0.00002   0.00008   0.00003  -0.00001
 125        4ZZ         0.00022  -0.00004   0.00000   0.00000   0.00001
 126        4XY        -0.00031   0.00000   0.00006   0.00002   0.00000
 127        4XZ         0.00000   0.00000   0.00000   0.00000   0.00000
 128        4YZ         0.00000   0.00000   0.00000   0.00000   0.00000
 129 13  O  1S          0.00004   0.00000  -0.00001  -0.00001  -0.00001
 130        2S          0.00007   0.00000  -0.00005  -0.00006  -0.00003
 131        2PX        -0.00001   0.00000  -0.00003  -0.00001   0.00000
 132        2PY        -0.00008   0.00000   0.00000   0.00000   0.00000
 133        2PZ         0.00000   0.00000   0.00000   0.00000   0.00000
 134        3S         -0.00089  -0.00003   0.00012   0.00036   0.00029
 135        3PX         0.00023  -0.00003   0.00010   0.00015   0.00010
 136        3PY         0.00063   0.00000  -0.00004   0.00004  -0.00006
 137        3PZ         0.00000   0.00000   0.00000   0.00000   0.00000
 138        4XX         0.00033  -0.00001   0.00000  -0.00002   0.00000
 139        4YY         0.00000   0.00000  -0.00004  -0.00007  -0.00001
 140        4ZZ         0.00006   0.00000  -0.00004  -0.00003  -0.00002
 141        4XY         0.00005   0.00000   0.00001   0.00002  -0.00001
 142        4XZ         0.00000   0.00000   0.00000   0.00000   0.00000
 143        4YZ         0.00000   0.00000   0.00000   0.00000   0.00000
 144 14  O  1S          0.00004   0.00000  -0.00002  -0.00001  -0.00001
 145        2S          0.00009   0.00000  -0.00007  -0.00004  -0.00003
 146        2PX        -0.00008   0.00000   0.00000  -0.00002  -0.00002
 147        2PY         0.00003   0.00000  -0.00001  -0.00002   0.00000
 148        2PZ         0.00000   0.00000   0.00000   0.00000   0.00000
 149        3S         -0.00115  -0.00003   0.00043   0.00013  -0.00001
 150        3PX         0.00067  -0.00002   0.00010   0.00002   0.00007
 151        3PY        -0.00021  -0.00003   0.00014   0.00010  -0.00002
 152        3PZ         0.00000   0.00000   0.00000   0.00000   0.00000
 153        4XX         0.00013   0.00000  -0.00005  -0.00003  -0.00001
 154        4YY         0.00022   0.00000  -0.00005  -0.00001  -0.00003
 155        4ZZ         0.00006   0.00000  -0.00004  -0.00004  -0.00004
 156        4XY         0.00019   0.00000   0.00004   0.00003   0.00000
 157        4XZ         0.00000   0.00000   0.00000   0.00000   0.00000
 158        4YZ         0.00000   0.00000   0.00000   0.00000   0.00000
 159 15  O  1S          0.00000  -0.00002   0.00001   0.00000   0.00004
 160        2S          0.00001  -0.00011   0.00003   0.00000   0.00011
 161        2PX         0.00001   0.00001  -0.00001   0.00000   0.00002
 162        2PY         0.00000  -0.00001   0.00000  -0.00002   0.00004
 163        2PZ         0.00000   0.00000   0.00000   0.00000   0.00000
 164        3S         -0.00019   0.00058  -0.00019  -0.00010  -0.00104
 165        3PX         0.00001  -0.00011   0.00004   0.00011   0.00019
 166        3PY        -0.00003   0.00013  -0.00005   0.00001  -0.00022
 167        3PZ         0.00000   0.00000   0.00000   0.00000   0.00000
 168        4XX         0.00001  -0.00005   0.00002   0.00000   0.00015
 169        4YY         0.00001  -0.00007   0.00001   0.00001   0.00018
 170        4ZZ        -0.00003  -0.00007   0.00002  -0.00001   0.00003
 171        4XY         0.00000  -0.00003   0.00000   0.00000   0.00002
 172        4XZ         0.00000   0.00000   0.00000   0.00000   0.00000
 173        4YZ         0.00000   0.00000   0.00000   0.00000   0.00000
 174 16  H  1S          0.00002  -0.00005   0.00000   0.00000  -0.00005
 175        2S          0.00018  -0.00023   0.00003   0.00017   0.00004
                          11        12        13        14        15
                           O         O         O         O         O
     Eigenvalues --   -11.28151  -1.61355  -1.41319  -1.40710  -1.21569
   1 1   C  1S         -0.04145  -0.00424  -0.00079  -0.00439  -0.08972
   2        2S         -0.00147   0.01060   0.00110   0.00849   0.17302
   3        2PX        -0.00021  -0.00299   0.00077  -0.00390   0.04579
   4        2PY        -0.00005  -0.00725  -0.00019  -0.00453  -0.04113
   5        2PZ         0.00000   0.00000   0.00000   0.00000   0.00001
   6        3S          0.00831  -0.01205   0.00511  -0.00408   0.09378
   7        3PX         0.00325  -0.01372   0.00108   0.00886  -0.00342
   8        3PY        -0.00067   0.00865  -0.00563   0.01261   0.00111
   9        3PZ         0.00000   0.00000   0.00000   0.00000   0.00000
  10        4XX        -0.00035   0.00017   0.00000   0.00069   0.00536
  11        4YY        -0.00033   0.00146   0.00013   0.00070   0.00851
  12        4ZZ        -0.00006   0.00047  -0.00016  -0.00039  -0.00821
  13        4XY        -0.00014   0.00166   0.00010  -0.00003   0.00092
  14        4XZ         0.00000   0.00000   0.00000   0.00000   0.00000
  15        4YZ         0.00000   0.00000   0.00000   0.00000   0.00000
  16 2   C  1S          0.99371  -0.00028  -0.00096  -0.00050  -0.07877
  17        2S          0.02792   0.00234   0.00302   0.00163   0.14936
  18        2PX         0.00000  -0.00086   0.00032  -0.00071  -0.00289
  19        2PY        -0.00042  -0.00122  -0.00085  -0.00045  -0.05573
  20        2PZ         0.00000   0.00000   0.00000   0.00000   0.00000
  21        3S         -0.01645   0.00167  -0.01725  -0.00607   0.09985
  22        3PX        -0.00006   0.00055  -0.00943   0.00855   0.00114
  23        3PY         0.00397   0.00347   0.00741   0.00204  -0.00957
  24        3PZ         0.00000   0.00000   0.00000   0.00000   0.00000
  25        4XX        -0.00146  -0.00014  -0.00018   0.00006   0.00724
  26        4YY        -0.00177   0.00006  -0.00001   0.00002   0.00507
  27        4ZZ        -0.00232   0.00047   0.00007   0.00012  -0.00705
  28        4XY         0.00001  -0.00009   0.00022  -0.00006   0.00057
  29        4XZ         0.00000   0.00000   0.00000   0.00000   0.00000
  30        4YZ         0.00000   0.00000   0.00000   0.00000   0.00000
  31 3   C  1S         -0.03959  -0.00015  -0.00410  -0.00012  -0.07981
  32        2S         -0.00141   0.00086   0.00811   0.00005   0.15290
  33        2PX         0.00020  -0.00064   0.00181  -0.00018  -0.04338
  34        2PY        -0.00004  -0.00048  -0.00578   0.00018  -0.03086
  35        2PZ         0.00000   0.00000   0.00000   0.00000   0.00000
  36        3S          0.00819   0.00363   0.02437   0.00312   0.08880
  37        3PX        -0.00322  -0.00240  -0.01982   0.00302   0.00087
  38        3PY        -0.00075  -0.00176   0.00245  -0.00640  -0.00361
  39        3PZ         0.00000   0.00000   0.00000   0.00000   0.00000
  40        4XX        -0.00037   0.00013   0.00032  -0.00001   0.00554
  41        4YY        -0.00034   0.00014   0.00049   0.00009   0.00698
  42        4ZZ        -0.00007   0.00020  -0.00022  -0.00004  -0.00743
  43        4XY         0.00014   0.00019  -0.00039  -0.00004  -0.00124
  44        4XZ         0.00000   0.00000   0.00000   0.00000   0.00000
  45        4YZ         0.00000   0.00000   0.00000   0.00000   0.00000
  46 4   C  1S          0.02696  -0.00036  -0.02008   0.00003  -0.08616
  47        2S          0.00078   0.00194   0.03729  -0.00068   0.16391
  48        2PX         0.00002  -0.00176   0.01875   0.00107  -0.04480
  49        2PY         0.00001   0.00012  -0.01793   0.00021   0.02153
  50        2PZ         0.00000   0.00000   0.00000   0.00000  -0.00001
  51        3S         -0.00362   0.00642   0.02037   0.00625   0.10662
  52        3PX         0.00078   0.01032   0.01083  -0.00723  -0.01307
  53        3PY        -0.00134  -0.00704  -0.02024  -0.01058   0.00432
  54        3PZ         0.00000   0.00000   0.00000   0.00000   0.00000
  55        4XX         0.00004   0.00011   0.00514   0.00017   0.00586
  56        4YY         0.00009  -0.00009   0.00262  -0.00011   0.00642
  57        4ZZ        -0.00003   0.00035  -0.00188  -0.00015  -0.00722
  58        4XY        -0.00001  -0.00034  -0.00496  -0.00005   0.00240
  59        4XZ         0.00000   0.00000   0.00000   0.00000   0.00000
  60        4YZ         0.00000   0.00000   0.00000   0.00000   0.00000
  61 5   C  1S         -0.00055  -0.00429  -0.00735   0.00406  -0.09214
  62        2S         -0.00009   0.01057   0.01379  -0.00761   0.17783
  63        2PX         0.00000  -0.00788   0.00841   0.00582  -0.01354
  64        2PY        -0.00005   0.00081   0.00158   0.00133   0.06180
  65        2PZ         0.00000   0.00000   0.00000   0.00000   0.00000
  66        3S          0.00120  -0.01149   0.00190   0.00146   0.09652
  67        3PX         0.00015   0.00078   0.00036  -0.01669  -0.00492
  68        3PY         0.00120  -0.01408   0.00263  -0.00309  -0.00417
  69        3PZ         0.00000   0.00000   0.00000   0.00000   0.00000
  70        4XX        -0.00006   0.00222   0.00140  -0.00068   0.00866
  71        4YY        -0.00003  -0.00066   0.00047  -0.00071   0.00550
  72        4ZZ        -0.00004   0.00043  -0.00074   0.00040  -0.00845
  73        4XY         0.00000   0.00039   0.00026   0.00007  -0.00108
  74        4XZ         0.00000   0.00000   0.00000   0.00000   0.00000
  75        4YZ         0.00000   0.00000   0.00000   0.00000   0.00000
  76 6   C  1S          0.00068  -0.02523  -0.00166  -0.00026  -0.11065
  77        2S          0.00002   0.04893   0.00323   0.00044   0.21567
  78        2PX        -0.00002  -0.03614   0.00188  -0.01043   0.03373
  79        2PY         0.00002  -0.02162  -0.00070   0.01696   0.01837
  80        2PZ         0.00000   0.00000   0.00000   0.00000   0.00000
  81        3S         -0.00319  -0.01256  -0.00453   0.00025   0.12389
  82        3PX        -0.00047   0.05671   0.00425  -0.01336   0.02700
  83        3PY        -0.00158   0.03395  -0.00312   0.02400   0.01984
  84        3PZ         0.00000   0.00000   0.00000   0.00000   0.00000
  85        4XX         0.00008   0.00734   0.00001   0.00403   0.00683
  86        4YY         0.00015   0.00131  -0.00006  -0.00393   0.00828
  87        4ZZ         0.00003  -0.00204  -0.00017  -0.00004  -0.00955
  88        4XY         0.00001   0.00644  -0.00013  -0.00245  -0.00189
  89        4XZ         0.00000   0.00000   0.00000   0.00000   0.00000
  90        4YZ         0.00000   0.00000   0.00000   0.00000   0.00000
  91 7   H  1S          0.00001   0.00221   0.00022   0.00490   0.03240
  92        2S          0.00038  -0.00490   0.00093   0.00174  -0.00252
  93 8   H  1S         -0.00024  -0.00007   0.00031   0.00032   0.02764
  94        2S          0.00102  -0.00271  -0.00158  -0.00048   0.00212
  95 9   H  1S          0.00001   0.00015   0.00268   0.00002   0.02925
  96        2S          0.00037   0.00070   0.00439  -0.00001   0.00061
  97 10  C  1S         -0.00015   0.00008  -0.11454  -0.00229  -0.01129
  98        2S         -0.00004   0.00110   0.21878   0.00408   0.02360
  99        2PX         0.00000  -0.00001   0.01155   0.00056  -0.03138
 100        2PY         0.00000  -0.00015  -0.17430  -0.00354   0.03876
 101        2PZ         0.00000   0.00000  -0.00003   0.00000   0.00001
 102        3S          0.00002  -0.01168   0.05531   0.00143   0.01829
 103        3PX        -0.00001   0.00670   0.01245   0.00088  -0.00508
 104        3PY         0.00045  -0.00100   0.03005   0.00256   0.00504
 105        3PZ         0.00000   0.00000   0.00000   0.00000   0.00000
 106        4XX        -0.00004  -0.00018  -0.01548  -0.00049   0.00606
 107        4YY        -0.00002  -0.00008   0.03120   0.00074  -0.00248
 108        4ZZ        -0.00002   0.00031  -0.01714  -0.00042  -0.00082
 109        4XY         0.00000   0.00019  -0.00409  -0.00016  -0.00247
 110        4XZ         0.00000   0.00000   0.00000   0.00000   0.00000
 111        4YZ         0.00000   0.00000   0.00001   0.00000   0.00000
 112 11  H  1S          0.00005   0.00210   0.00437  -0.00435   0.03251
 113        2S          0.00037  -0.00397   0.00404  -0.00173  -0.00414
 114 12  N  1S         -0.00001  -0.15873   0.00008  -0.00036  -0.01396
 115        2S         -0.00002   0.34971  -0.00072   0.00078   0.02901
 116        2PX         0.00001  -0.07163   0.00382  -0.15652   0.09104
 117        2PY        -0.00001  -0.04414  -0.00469   0.26284   0.05422
 118        2PZ         0.00000  -0.00004   0.00000  -0.00003   0.00001
 119        3S         -0.00004   0.20472   0.00285   0.00119   0.06212
 120        3PX        -0.00014   0.04794   0.00100  -0.00714   0.03992
 121        3PY         0.00056   0.02918   0.00262   0.01254   0.02264
 122        3PZ         0.00000   0.00000   0.00000   0.00000   0.00000
 123        4XX        -0.00002   0.00599  -0.00047   0.02454   0.00491
 124        4YY        -0.00003   0.01860   0.00027  -0.02438  -0.00264
 125        4ZZ        -0.00002  -0.01769  -0.00015  -0.00006  -0.00149
 126        4XY         0.00001  -0.01315   0.00041  -0.01529   0.00812
 127        4XZ         0.00000   0.00001   0.00000   0.00001   0.00000
 128        4YZ         0.00000   0.00000   0.00000  -0.00001   0.00000
 129 13  O  1S         -0.00001  -0.10817   0.00312  -0.14413   0.02381
 130        2S         -0.00002   0.24184  -0.00686   0.32168  -0.05572
 131        2PX        -0.00001   0.09236  -0.00190   0.08886   0.00494
 132        2PY        -0.00001  -0.06213   0.00087  -0.03236   0.02005
 133        2PZ         0.00000   0.00002   0.00000   0.00003   0.00000
 134        3S         -0.00011   0.18984  -0.00764   0.30827  -0.05419
 135        3PX        -0.00004   0.03673  -0.00169   0.05279  -0.00271
 136        3PY         0.00006  -0.03019   0.00033  -0.01727   0.00558
 137        3PZ         0.00000   0.00001   0.00000   0.00002   0.00000
 138        4XX        -0.00002   0.01342  -0.00038   0.01585  -0.00002
 139        4YY         0.00000   0.00633   0.00010  -0.00124  -0.00272
 140        4ZZ        -0.00004  -0.00289   0.00011  -0.00435  -0.00058
 141        4XY         0.00001  -0.01560   0.00019  -0.00768   0.00219
 142        4XZ         0.00000   0.00000   0.00000   0.00001   0.00000
 143        4YZ         0.00000   0.00000   0.00000   0.00000   0.00000
 144 14  O  1S         -0.00001  -0.10913  -0.00244   0.14337   0.02365
 145        2S         -0.00003   0.24405   0.00541  -0.32026  -0.05524
 146        2PX         0.00000  -0.01092   0.00053  -0.01357   0.02010
 147        2PY         0.00001   0.11188   0.00157  -0.09339  -0.00513
 148        2PZ         0.00000   0.00001   0.00000  -0.00001   0.00000
 149        3S          0.00038   0.19182   0.00622  -0.30615  -0.05492
 150        3PX        -0.00004  -0.00934  -0.00028  -0.00957   0.00360
 151        3PY         0.00015   0.04736   0.00141  -0.05457  -0.00548
 152        3PZ         0.00000   0.00000   0.00000  -0.00001   0.00000
 153        4XX        -0.00002  -0.00345  -0.00006   0.00296  -0.00047
 154        4YY         0.00001   0.02326   0.00036  -0.01754  -0.00217
 155        4ZZ        -0.00002  -0.00292  -0.00006   0.00431  -0.00052
 156        4XY        -0.00001  -0.00513   0.00004  -0.00405   0.00251
 157        4XZ         0.00000   0.00000   0.00000   0.00000   0.00000
 158        4YZ         0.00000   0.00000   0.00000   0.00000   0.00000
 159 15  O  1S         -0.00001  -0.00007  -0.19503  -0.00405   0.01920
 160        2S         -0.00004   0.00006   0.43001   0.00851  -0.04273
 161        2PX        -0.00001  -0.00001  -0.01603  -0.00021  -0.00561
 162        2PY         0.00000   0.00009   0.13755   0.00277  -0.00631
 163        2PZ         0.00000   0.00000   0.00002   0.00000   0.00000
 164        3S          0.00033   0.00156   0.39576   0.00984  -0.04342
 165        3PX         0.00004  -0.00084  -0.00996  -0.00051  -0.00105
 166        3PY         0.00007   0.00063   0.05420   0.00127  -0.00284
 167        3PZ         0.00000   0.00000   0.00001   0.00000   0.00000
 168        4XX        -0.00003  -0.00008  -0.00267  -0.00021   0.00009
 169        4YY        -0.00002   0.00008   0.01812   0.00014  -0.00130
 170        4ZZ        -0.00002   0.00009  -0.00275  -0.00024   0.00031
 171        4XY         0.00001  -0.00009  -0.00317  -0.00007  -0.00039
 172        4XZ         0.00000   0.00000   0.00000   0.00000   0.00000
 173        4YZ         0.00000   0.00000   0.00000   0.00000   0.00000
 174 16  H  1S         -0.00004   0.00014   0.02711   0.00046   0.00626
 175        2S         -0.00005  -0.00133  -0.01208  -0.00086   0.00086
                          16        17        18        19        20
                           O         O         O         O         O
     Eigenvalues --    -1.11148  -1.07565  -0.97427  -0.92392  -0.85038
   1 1   C  1S         -0.04055  -0.10550   0.06075  -0.09488  -0.01222
   2        2S          0.08056   0.20533  -0.11812   0.19019   0.02360
   3        2PX        -0.03696   0.06225  -0.03157  -0.05740  -0.07792
   4        2PY        -0.07515   0.04520  -0.00242  -0.02119  -0.18816
   5        2PZ         0.00001   0.00000   0.00000   0.00000   0.00001
   6        3S          0.05109   0.15093  -0.09897   0.16168   0.01425
   7        3PX        -0.01424   0.00400  -0.00564  -0.03234  -0.02004
   8        3PY        -0.00196   0.01068   0.00257   0.01520  -0.05015
   9        3PZ         0.00000   0.00000   0.00000   0.00000   0.00000
  10        4XX        -0.00375   0.01273  -0.00422   0.00527  -0.00810
  11        4YY         0.00970   0.00208  -0.00330   0.00696   0.00924
  12        4ZZ        -0.00312  -0.00874   0.00528  -0.00713  -0.00154
  13        4XY        -0.00240   0.00474   0.00380  -0.00327  -0.00988
  14        4XZ         0.00000   0.00000   0.00000   0.00000   0.00000
  15        4YZ         0.00000   0.00000   0.00000   0.00000   0.00000
  16 2   C  1S          0.05113  -0.12391  -0.00367   0.04180   0.09364
  17        2S         -0.09691   0.23782   0.00791  -0.08226  -0.18808
  18        2PX        -0.06545  -0.03772   0.10868  -0.13813   0.08176
  19        2PY         0.02006  -0.03742   0.01226  -0.00596  -0.08615
  20        2PZ         0.00000   0.00000   0.00000   0.00000   0.00001
  21        3S         -0.07288   0.18173   0.01090  -0.07171  -0.15872
  22        3PX        -0.00820  -0.00441   0.02312  -0.02357   0.02113
  23        3PY         0.00348  -0.00247   0.00219  -0.01033  -0.06701
  24        3PZ         0.00000   0.00000   0.00000   0.00000   0.00001
  25        4XX        -0.00456   0.00975   0.00117  -0.00171  -0.00032
  26        4YY        -0.00271   0.00749  -0.00047  -0.00342  -0.01058
  27        4ZZ         0.00448  -0.00998   0.00011   0.00324   0.00608
  28        4XY         0.00740   0.00413  -0.00939   0.01057  -0.00433
  29        4XZ         0.00000   0.00000   0.00000   0.00000   0.00000
  30        4YZ         0.00000   0.00000   0.00000   0.00000   0.00000
  31 3   C  1S          0.10831  -0.02738  -0.08883   0.05782  -0.07296
  32        2S         -0.20932   0.05337   0.17660  -0.11618   0.14754
  33        2PX         0.01746  -0.07147   0.02893   0.07486   0.07948
  34        2PY         0.03912   0.09148   0.00480  -0.09002  -0.08085
  35        2PZ         0.00000  -0.00001   0.00000   0.00001   0.00001
  36        3S         -0.14730   0.03596   0.14689  -0.08152   0.11117
  37        3PX        -0.00545  -0.00936   0.02242   0.00530   0.05520
  38        3PY         0.00297   0.01454   0.00745  -0.03780  -0.00146
  39        3PZ         0.00000   0.00000   0.00000   0.00000   0.00000
  40        4XX        -0.00564   0.01060   0.00613  -0.00837   0.00094
  41        4YY        -0.01019  -0.00709   0.00594   0.00221   0.00686
  42        4ZZ         0.00932  -0.00225  -0.00661   0.00425  -0.00549
  43        4XY         0.00104  -0.00528   0.00010   0.00004   0.00899
  44        4XZ         0.00000   0.00000   0.00000   0.00000   0.00000
  45        4YZ         0.00000   0.00000   0.00000   0.00000   0.00000
  46 4   C  1S          0.09475   0.09470  -0.00711  -0.05384   0.00466
  47        2S         -0.18173  -0.18323   0.01542   0.10913  -0.01071
  48        2PX        -0.01982   0.02248   0.10168   0.15642  -0.00713
  49        2PY        -0.05566   0.05709   0.10480  -0.04910   0.18583
  50        2PZ         0.00001   0.00000  -0.00001  -0.00001   0.00000
  51        3S         -0.12861  -0.14230   0.00728   0.07910  -0.01536
  52        3PX         0.00064  -0.00036   0.03180   0.05475  -0.00781
  53        3PY        -0.01139   0.01468   0.01984  -0.04407   0.06639
  54        3PZ         0.00000   0.00000   0.00000   0.00000   0.00000
  55        4XX        -0.00125  -0.01069  -0.00658   0.00853  -0.00958
  56        4YY        -0.01042  -0.00072   0.00755  -0.00262   0.00835
  57        4ZZ         0.00737   0.00687  -0.00005  -0.00362   0.00012
  58        4XY         0.00193  -0.00447  -0.00714  -0.00883   0.00036
  59        4XZ         0.00000   0.00000   0.00000   0.00000   0.00000
  60        4YZ         0.00000   0.00000   0.00000   0.00000   0.00000
  61 5   C  1S         -0.01302   0.10281   0.09086   0.06987   0.04598
  62        2S          0.02717  -0.20101  -0.17850  -0.14034  -0.09539
  63        2PX        -0.10302  -0.03270  -0.01164   0.07315  -0.08082
  64        2PY        -0.00584  -0.02299  -0.02836  -0.00043   0.08427
  65        2PZ         0.00000   0.00000   0.00000   0.00000  -0.00001
  66        3S          0.01114  -0.14652  -0.13982  -0.10867  -0.07674
  67        3PX        -0.01011  -0.00312   0.00300   0.00345  -0.01793
  68        3PY        -0.01065   0.00456   0.00355   0.02271   0.05894
  69        3PZ         0.00000   0.00000   0.00000   0.00000   0.00000
  70        4XX         0.00221  -0.00882  -0.00236  -0.00175  -0.00280
  71        4YY        -0.00087  -0.00593  -0.00924  -0.00690  -0.00383
  72        4ZZ        -0.00065   0.00840   0.00755   0.00532   0.00285
  73        4XY        -0.00987  -0.00378   0.00206   0.00309  -0.00539
  74        4XZ         0.00000   0.00000   0.00000   0.00000   0.00000
  75        4YZ         0.00000   0.00000   0.00000   0.00000   0.00000
  76 6   C  1S         -0.11319   0.01804   0.00359   0.00239  -0.06086
  77        2S          0.22442  -0.03662  -0.00336  -0.00493   0.12403
  78        2PX        -0.05620  -0.04303  -0.18941  -0.09199   0.02281
  79        2PY        -0.01815   0.11151  -0.08268   0.15288   0.12743
  80        2PZ         0.00000  -0.00001   0.00001  -0.00001  -0.00001
  81        3S          0.14475  -0.01899  -0.04136  -0.00330   0.11727
  82        3PX         0.01671  -0.01039  -0.01208  -0.02880  -0.03537
[...]
    10  C    0.361862
    11  H    0.278530
    12  N   -0.000681
    13  O   -0.135434
    14  O   -0.108942
    15  O   -0.381551
    16  H    0.142914
 Sum of Mulliken atomic charges =   0.00000
 Mulliken charges with hydrogens summed into heavy atoms:
              1
     1  C    0.903186
     2  C   -0.226580
     3  C   -1.367071
     4  C    0.838519
     5  C    0.611822
     6  C   -0.638044
    10  C    0.504776
    12  N   -0.000681
    13  O   -0.135434
    14  O   -0.108942
    15  O   -0.381551
 Sum of Mulliken charges with hydrogens summed into heavy atoms =   0.00000
 Electronic spatial extent (au):  <R**2>=           1808.5089
 Charge=              0.0000 electrons
 Dipole moment (field-independent basis, Debye):
    X=             -3.0142    Y=              5.8916    Z=              0.0000  Tot=              6.6179
 Quadrupole moment (field-independent basis, Debye-Ang):
   XX=            -73.7109   YY=            -64.2698   ZZ=            -63.6692
   XY=             -5.2369   XZ=              0.0000   YZ=              0.0000
 Traceless Quadrupole moment (field-independent basis, Debye-Ang):
   XX=             -6.4942   YY=              2.9468   ZZ=              3.5474
   XY=             -5.2369   XZ=              0.0000   YZ=              0.0000
 Octapole moment (field-independent basis, Debye-Ang**2):
  XXX=            -34.6235  YYY=             25.5545  ZZZ=              0.0000  XYY=             11.6502
  XXY=             41.0632  XXZ=              0.0000  XZZ=              6.2440  YZZ=             -9.2529
  YYZ=              0.0000  XYZ=              0.0000
 Hexadecapole moment (field-independent basis, Debye-Ang**3):
 XXXX=          -1643.0394 YYYY=           -675.6614 ZZZZ=            -65.8048 XXXY=            -74.1782
 XXXZ=              0.0000 YYYX=            -16.3033 YYYZ=              0.0000 ZZZX=              0.0000
 ZZZY=              0.0000 XXYY=           -426.8032 XXZZ=           -259.4141 YYZZ=           -137.7014
 XXYZ=              0.0000 YYXZ=              0.0000 ZZXY=              1.4268
 N-N= 5.585884560166D+02 E-N=-2.399726955375D+03  KE= 5.460501149307D+02

 Test job not archived.
 1\1\GINC-PALLAS\SP\RMP2\GTMP2large\C7H5N1O3\JMSOLANO\10-Mar-2020\0\\#N
  Geom=AllCheck Guess=TCheck SCRF=Check Test MP2=FrzG3/GTMP2Large\\3NBA
 La_opt, G3MP2, qcisd test\\0,1\C,0,-0.004565362,-0.0000142226,-0.00405
 95209\C,0,-0.0015041984,-0.000004465,1.3890460088\C,0,1.2041464832,0.0
 000770869,2.0899924817\C,0,2.4154610787,0.0001491783,1.3934344573\C,0,
 2.4356567241,0.0001408804,-0.0035090086\C,0,1.2201849359,0.00005896,-0
 .668499275\H,0,-0.9267662919,-0.0000768251,-0.5740841863\H,0,-0.945803
 6198,-0.0000607148,1.9262543078\H,0,1.2059673455,0.0000847047,3.178663
 4311\C,0,3.6990772461,0.0002359867,2.1384728957\H,0,3.3781418436,0.000
 1970299,-0.5410300665\N,0,1.2194760201,0.0000487844,-2.1413650319\O,0,
 0.1182640361,-0.0000252336,-2.7133890759\O,0,2.319496633,0.0001149057,
 -2.7140134878\O,0,4.7978425354,0.0003024706,1.5985878377\H,0,3.6065877
 535,0.0002382935,3.2434607063\\Version=EM64L-G09RevB.01\State=1-A\HF=-
 547.0696743\MP2=-549.0617235\RMSD=4.496e-09\PG=C01 [X(C7H5N1O3)]\\@


 BETTER TO HUNT IN FIELDS, FOR HEALTH UNBOUGHT
 THAN FEE THE DOCTOR FOR A NAUSEOUS DRAUGHT.
 THE WISE, FOR CURE, ON EXERCISE DEPEND;
 GOD NEVER MADE HIS WORK FOR MAN TO MEND.
     -- JOHN DRYDEN (1631-1700)

 Temperature=              298.150000 Pressure=                      1.000000
 E(ZPE)=                     0.108958 E(Thermal)=                    0.117968
 E(QCISD(T))=             -548.591578 E(Empiric)=                   -0.259812
 DE(MP2)=                   -0.568249
 G3MP2(0 K)=              -549.310681 G3MP2 Energy=               -549.301671
 G3MP2 Enthalpy=          -549.300727 G3MP2 Free Energy=          -549.345854

 Test job not archived.
 1\1\GINC-PALLAS\Mixed\G3MP2\G3MP2\C7H5N1O3\JMSOLANO\10-Mar-2020\0\\#G3
 MP2 QCISD=(Maxcyc=400) opt=(MaxCycles=400) scf=(MaxCycle=600) test GFI
 nput IOP(6/7=3)\\3NBALa_opt, G3MP2, qcisd test\\0,1\C,0,-0.004565362,-
 0.0000142226,-0.0040595209\C,0,-0.0015041984,-0.000004465,1.3890460088
 \C,0,1.2041464832,0.0000770869,2.0899924817\C,0,2.4154610787,0.0001491
 783,1.3934344573\C,0,2.4356567241,0.0001408804,-0.0035090086\C,0,1.220
 1849359,0.00005896,-0.668499275\H,0,-0.9267662919,-0.0000768251,-0.574
 0841863\H,0,-0.9458036198,-0.0000607148,1.9262543078\H,0,1.2059673455,
 0.0000847047,3.1786634311\C,0,3.6990772461,0.0002359867,2.1384728957\H
 ,0,3.3781418436,0.0001970299,-0.5410300665\N,0,1.2194760201,0.00004878
 44,-2.1413650319\O,0,0.1182640361,-0.0000252336,-2.7133890759\O,0,2.31
 9496633,0.0001149057,-2.7140134878\O,0,4.7978425354,0.0003024706,1.598
 5878377\H,0,3.6065877535,0.0002382935,3.2434607063\\Version=EM64L-G09R
 evB.01\State=1-A\MP2/G3Bas1=-548.4934749\QCISD(T)/G3Bas1=-548.5915781\
 MP2/GTMP2Large=-549.0617235\G3MP2=-549.3106812\FreqCoord=0.0118507946,
 -0.000023968,-0.0034310219,0.0093521618,-0.0000064106,2.6065107768,2.2
 83893353,0.000150702,3.9093057116,4.5652146381,0.0002929013,2.61790755
 33,4.5879749405,0.0002762617,-0.0091410781,2.3095826232,0.0001164242,-
 1.2669953113,-1.7153764701,-0.0001445955,-1.0583740327,-1.7508127027,-
 0.0001149961,3.6158091386,2.2789368724,0.0001627507,5.9429069059,6.991
 8654895,0.0004638006,4.0330444658,6.3424313148,0.0003851914,-1.0181506
 488,2.3054585313,0.000098566,-4.0249731948,0.3022117742,-0.0000608963,
 -5.0627487599,4.2995665663,0.0002023271,-5.0723931678,9.0139944539,0.0
 005568206,3.0572432613,6.8085492424,0.0004170252,6.0915476449\PG=C01 [
 X(C7H5N1O3)]\NImag=0\\0.82713644,0.00004299,0.17553128,0.06327541,0.00
 000839,0.79528070,-0.17048109,-0.00000564,0.05791729,0.82542278,-0.000
 00642,-0.07803169,0.00000180,0.00004305,0.16192782,-0.05341422,-0.0000
 0554,-0.38001472,-0.05631214,0.00000029,0.77235688,0.06614150,0.000003
 04,-0.11923455,-0.31911657,-0.00001572,-0.02724908,0.74936565,0.000003
 63,0.00726426,-0.00000809,-0.00001656,-0.07930172,-0.00000267,0.000037
 77,0.17815672,-0.03503489,-0.00000252,-0.02846596,-0.13627416,-0.00000
 978,-0.21183199,0.00260288,0.00000435,0.84424804,-0.02959175,-0.000001
 14,0.04478128,-0.06626189,-0.00000554,-0.04299223,-0.30933669,-0.00001
 464,0.13474454,0.76430354,-0.00000115,-0.00733925,0.00000248,-0.000004
 92,0.01168439,-0.00000214,-0.00001532,-0.07807074,0.00000789,0.0000391
 6,0.16364155,0.05162014,0.00000282,-0.08735995,0.04050165,0.00000328,0
 .10259822,0.03599889,0.00000144,-0.21954357,-0.02162646,0.00000238,0.7
 7203888,-0.07094411,-0.00000499,0.04312470,-0.03059302,-0.00000197,-0.
 05343835,0.06234606,0.00000384,0.03757316,-0.16204325,-0.00000535,0.05
 635516,0.85567584,-0.00000552,0.00901174,0.00000348,-0.00000197,-0.005
 85261,-0.00000411,0.00000447,0.00722495,0.00000225,-0.00000585,-0.0804
 4230,0.00000173,0.00004459,0.17886879,-0.04412732,-0.00000220,0.104270
 99,-0.05059464,-0.00000392,-0.08936701,0.11701031,0.00000751,-0.023224
 78,-0.03920087,-0.00000471,-0.34969658,-0.04664896,0.00000106,0.773211
 68,-0.31850889,-0.00001565,0.01670618,0.06246732,0.00000441,0.11865950
 ,-0.11707338,-0.00000720,-0.00208750,0.05307419,0.00000235,-0.11576829
 ,-0.33795483,-0.00001767,-0.02747025,0.85106852,-0.00001484,-0.0753715
 4,0.00000033,0.00000377,0.00748941,0.00000757,-0.00000727,-0.00754177,
 -0.00000011,0.00000283,0.00871751,-0.00000798,-0.00001832,-0.07605578,
 -0.00000243,0.00004518,0.16252374,0.12664269,0.00000757,-0.18684684,0.
 02742987,0.00000161,-0.02794258,-0.00299906,-0.00000016,-0.00501064,-0
 .02322573,-0.00000184,-0.02720197,-0.13535054,-0.00000960,-0.19376284,
 0.00820522,0.00000478,0.68284463,-0.31195996,-0.00001795,-0.14059376,0
 .00923948,0.00000011,0.00287472,0.00093882,-0.00000053,0.00163747,0.00
 048190,0.00000007,0.00075873,-0.00365251,-0.00000060,0.00438616,-0.019
 49197,-0.00000191,-0.01824033,0.32283118,-0.00001809,-0.05248670,-0.00
 000992,-0.00000008,0.00769928,0.00000011,-0.00000056,0.00914503,0.0000
 0001,0.00000007,-0.00049036,0.00000005,-0.00000061,0.00595261,0.000000
 19,-0.00000158,0.00764544,-0.00000117,0.00002002,0.03363895,-0.1436823
 7,-0.00001013,-0.15715088,-0.03064631,-0.00000211,-0.00845111,0.000502
 95,-0.00000007,-0.00644355,0.00112029,0.00000007,-0.00091820,0.0042146
 2,0.00000022,-0.00223549,0.01404573,0.00000097,0.01688838,0.15423413,0
 .00001100,0.16122307,0.00671765,0.00000011,-0.00284290,-0.30855937,-0.
 00001629,0.13503152,-0.01991672,-0.00000147,0.01819450,-0.00351720,-0.
 00000080,-0.00475391,0.00015400,0.00000005,-0.00091880,0.00137211,-0.0
 0000046,-0.00084907,0.00077249,0.00000040,0.00051564,0.32245885,0.0000
 0036,0.00469321,-0.00000033,-0.00001630,-0.04598663,0.00000820,-0.0000
 0173,0.00439848,0.00000125,-0.00000075,0.00784741,-0.00000035,0.000000
 06,-0.00069749,-0.00000005,-0.00000051,0.00844158,-0.00000017,0.000000
 40,-0.00535770,0.00000008,0.00001808,0.03172072,0.03353501,0.00000209,
 -0.01198537,0.13478757,0.00000815,-0.15019649,-0.01840285,-0.00000113,
 0.01561755,-0.00357536,-0.00000032,-0.00172822,-0.00085770,-0.00000006
 ,-0.00104821,-0.00189463,-0.00000020,-0.00569283,-0.00048075,0.,0.0012
 8948,-0.14496401,-0.00000870,0.15294191,-0.00576209,-0.00000094,-0.003
 35356,0.00817271,-0.00000015,-0.03257014,-0.07628478,-0.00000163,0.002
 11881,0.00869349,0.00000042,0.03071605,-0.00603933,-0.00000091,0.00286
 384,-0.00166206,-0.00000012,-0.00000820,0.00031633,0.00000006,-0.00141
 306,0.00110486,0.00000039,0.00075416,0.07039393,-0.00000093,0.00833746
 ,-0.00000030,0.00000013,0.00692689,-0.00000224,-0.00000176,-0.05106797
 ,-0.00000183,0.00000033,0.00574757,0.00000183,-0.00000088,0.00784073,0
 .00000018,-0.00000016,0.00014359,-0.00000002,0.00000007,-0.00064246,-0
 .00000009,0.00000038,-0.00476121,0.00000009,0.00000245,0.03284999,-0.0
 0328463,-0.00000026,0.00016736,0.00342799,0.00000010,-0.01113570,0.001
 04496,-0.00000195,-0.37795207,-0.00100041,-0.00000017,-0.01219497,0.00
 313157,0.00000017,-0.00010981,0.00008819,0.00000001,0.00093659,0.00027
 824,0.00000002,-0.00056330,-0.00036541,0.,0.00097942,-0.00118129,0.000
 00220,0.39991156,-0.00071226,0.00000002,0.00396586,-0.00264206,-0.0000
 0062,0.00515626,-0.03547536,-0.00000244,-0.00889896,-0.18652409,-0.000
 00778,-0.05137381,0.00405680,0.00000006,-0.02107853,0.00798326,0.00000
 008,0.00192308,-0.00015092,0.00000004,-0.00018281,0.00023252,-0.000000
 02,-0.00046617,0.00032012,0.00000027,-0.00314588,1.06451200,0.00000010
 ,-0.00082124,0.00000026,-0.00000078,0.00916978,0.00000039,-0.00000231,
 0.00133303,-0.00000068,-0.00000647,-0.09105471,-0.00000314,-0.00000010
 ,0.00360847,-0.00000127,-0.00000005,0.00804268,-0.00000006,0.00000005,
 -0.00089317,0.,-0.00000001,0.00035616,-0.00000004,0.00000035,-0.005153
 37,-0.00000014,0.00004333,0.22960189,0.00366289,0.00000022,-0.00270934
 ,0.00750114,0.00000050,0.00087632,0.01383214,0.00000114,0.02255822,-0.
 07002108,-0.00000540,-0.18937769,-0.03874531,-0.00000273,-0.01583072,0
 .00105134,-0.00000005,-0.00998392,-0.00001164,0.,-0.00029823,0.0016815
 0,0.00000010,0.00093105,0.00287515,0.00000018,-0.00083074,-0.25179990,
 -0.00001488,0.81286855,-0.00296812,-0.00000067,-0.00399600,0.00041125,
 0.00000007,-0.00057176,0.00047077,-0.00000049,-0.00176167,0.00887368,0
 .00000017,0.00043115,-0.31762888,-0.00001657,0.13916146,-0.01854025,-0
 .00000168,0.01612986,-0.00074848,-0.00000005,0.00082209,-0.00000251,0.
 00000005,0.00003363,0.00036267,0.00000003,-0.00039659,-0.00013312,0.00
 000031,0.00011572,0.32973005,-0.00000069,0.00674450,-0.00000031,0.0000
 0005,-0.00071162,-0.00000006,-0.00000047,0.00773873,-0.00000022,0.0000
 0033,0.00691340,0.00000005,-0.00001642,-0.05352320,0.00000844,-0.00000
 193,0.00849936,0.00000109,-0.00000007,0.00016980,0.00000006,0.00000005
 ,-0.00077208,0.,0.00000005,-0.00022782,-0.00000003,0.00000024,-0.00461
 934,0.,0.00001847,0.03480099,-0.00397082,-0.00000034,-0.00261825,-0.00
 067252,-0.00000004,-0.00067840,-0.00130746,-0.00000019,-0.00646378,0.0
 3083384,0.00000195,-0.00885772,0.14081387,0.00000865,-0.15109004,-0.01
 519157,-0.00000097,0.01718510,-0.00097495,-0.00000005,0.00084013,0.000
 02692,0.,0.00004333,0.00143985,0.00000009,-0.00059827,0.00282297,0.000
 00020,-0.00052218,-0.15246090,-0.00000924,0.15410850,0.02123141,0.0000
 0173,0.03378183,-0.00962487,-0.00000124,0.00626983,-0.00489222,-0.0000
 0024,-0.00009795,-0.01036703,-0.00000146,-0.00715520,0.02028566,0.0000
 0137,-0.03394594,-0.14934462,-0.00000323,-0.00005391,-0.00504777,0.,0.
 00134305,0.00029089,0.,0.00228362,-0.00065234,0.00000003,-0.00000745,0
 .00421115,0.00000018,-0.00295933,-0.00450797,0.00000007,-0.00152474,1.
 26360763,0.00000181,-0.00332094,0.00000201,-0.00000127,0.00958474,0.00
 000043,-0.00000026,-0.00129697,-0.00000002,-0.00000137,0.01114756,-0.0
 0000050,0.00000132,-0.00262003,-0.00000243,-0.00000324,-0.09952833,-0.
 00000173,-0.00000005,-0.00487596,0.00000013,-0.00000003,0.00075186,0.0
 0000016,0.00000004,-0.00121280,0.,0.00000016,0.00092969,-0.00000021,0.
 00000011,-0.00576444,-0.00000005,0.00006362,0.29537245,0.01612818,0.00
 000078,-0.03345349,0.00696369,0.00000036,0.00682997,0.00011441,0.00000
 004,0.00214342,-0.00594027,-0.00000052,0.00672207,-0.01651701,-0.00000
 136,-0.03377226,0.00138292,0.00000046,-0.19425703,-0.00264702,-0.00000
 009,0.00079154,-0.00059220,-0.00000004,0.00034847,-0.00002111,0.000000
 02,0.00020691,-0.00473728,-0.00000028,-0.00126273,0.00199749,0.0000002
 3,0.00098424,-0.00537817,0.00001032,0.89397056,-0.00993200,-0.00000066
 ,0.00578436,0.00251535,0.00000023,-0.00135207,-0.00054996,-0.00000004,
 0.00033500,0.00226554,0.00000026,-0.00068941,0.00141840,-0.00000013,-0
 .00019655,-0.00701133,-0.00000289,-0.02808894,0.00445285,0.00000029,0.
 00093084,0.00006663,0.,-0.00042418,0.00041807,0.00000002,-0.00000637,-
 0.00049009,0.,0.00017397,0.00185866,0.00000009,0.00205690,-0.55838849,
 -0.00003585,-0.26032839,0.73328520,-0.00000084,0.00192123,0.00000032,0
 .00000021,-0.00068314,-0.00000012,-0.00000003,0.00011773,0.00000003,0.
 00000020,-0.00160801,-0.00000005,-0.00000005,0.00340916,-0.00000019,-0
 .00000279,0.02438402,-0.00000205,0.00000031,-0.00007974,-0.00000001,0.
 ,-0.00000072,-0.00000004,0.00000003,0.00003661,0.,0.00000003,-0.000432
 88,0.00000001,0.00000010,0.00056815,0.00000015,-0.00003642,-0.09919063
 ,-0.00002234,0.00005249,0.03632246,-0.00142921,-0.00000017,-0.00556715
 ,-0.00161765,-0.00000009,0.00072095,-0.00219868,-0.00000016,-0.0008355
 6,-0.00150778,-0.00000009,-0.00420802,0.00782513,0.00000043,-0.0051208
 3,-0.05802973,-0.00000510,-0.03445805,-0.00089428,-0.00000013,-0.00601
 071,0.00021934,0.00000001,-0.00023363,-0.00006355,0.,-0.00023584,0.003
 15262,0.00000020,0.00011203,0.00035652,0.00000002,0.00073368,-0.232746
 30,-0.00001959,-0.32234435,0.28531011,0.00002398,0.30900116,0.00107708
 ,-0.00000015,-0.00002324,0.00199790,0.00000021,0.00136036,-0.00037323,
 -0.00000004,-0.00040959,0.00285881,0.00000023,0.00192853,-0.00941649,-
 0.00000085,-0.00609612,-0.00601235,-0.00000118,0.02879165,0.00199367,0
 .00000009,-0.00193997,-0.00001287,0.00000002,0.00018971,0.00040711,0.0
 0000003,0.00000011,-0.00232559,-0.00000013,0.00066539,0.00392404,0.000
 00027,-0.00052554,-0.56422682,-0.00002488,0.26562883,-0.17018035,-0.00
 001322,0.00390869,0.73861785,-0.00000025,0.00354606,-0.00000017,0.0000
 0026,-0.00133175,0.00000007,-0.00000003,0.00022612,-0.00000002,0.00000
 022,-0.00090725,0.00000010,-0.00000067,0.00175800,-0.00000046,-0.00000
 128,0.02435728,0.00000167,0.00000009,0.00047727,-0.00000011,0.00000002
 ,-0.00040764,0.,0.00000002,0.00004749,0.,-0.00000009,-0.00011301,0.000
 00005,0.00000025,-0.00000620,-0.00000010,-0.00002431,-0.09943395,0.000
 01221,-0.00001382,0.03505959,0.00000081,0.00003952,0.03654365,-0.00821
 075,-0.00000062,-0.00506063,0.00054052,0.00000005,-0.00414977,0.002579
 77,0.00000015,-0.00068689,0.00064323,0.00000006,0.00030959,0.00178409,
 0.00000003,-0.00517716,0.05777361,0.00000251,-0.03564587,-0.00013864,-
 0.00000002,0.00075958,0.00002502,0.,-0.00103274,0.00003601,0.,-0.00023
 597,0.00318334,0.00000020,0.00094285,0.00121720,0.00000002,-0.00554975
 ,0.23808381,0.00001132,-0.32701764,-0.00252261,0.00000039,0.06887272,-
 0.29233179,-0.00001397,0.31377391,-0.00138385,-0.00000008,0.00045201,-
 0.00280880,-0.00000016,-0.00160225,0.00155358,-0.00000015,-0.01126563,
 -0.07671571,-0.00000513,0.01132677,0.00029230,0.00000004,0.00885561,-0
 .00150074,-0.00000006,0.00110597,0.00005170,0.,0.00008677,-0.00112040,
 -0.00000006,-0.00050825,0.00089850,0.00000004,0.00080560,-0.78167051,-
 0.00003410,0.33486033,-0.00109348,-0.00000004,-0.00134324,-0.00204947,
 -0.00000009,0.00384662,0.00037255,0.,-0.00195013,0.00157993,0.00000005
 ,-0.00250206,0.87603665,-0.00000014,0.00004402,0.00000006,-0.00000003,
 -0.00204594,-0.00000017,-0.00000003,0.00288583,-0.00000057,-0.00000588
 ,0.02286436,0.00000045,0.00000003,-0.00082135,0.00000039,0.00000002,-0
 .00068476,0.00000014,-0.00000001,0.00019997,0.,-0.00000004,-0.00028514
 ,-0.00000002,-0.00000002,0.00088657,0.00000003,-0.00003321,-0.07632815
 ,0.00001582,-0.00000007,-0.00022427,-0.00000006,-0.00000009,-0.0000396
 6,0.00000020,0.00000002,0.00003451,-0.00000010,0.00000007,0.00015974,-
 0.00000014,0.00004152,0.02876322,-0.00143776,-0.00000009,0.00124146,-0
 .00216559,-0.00000013,0.00037903,-0.00349196,-0.00000025,-0.00349928,-
 0.00764990,-0.00000052,0.03510810,0.00108074,0.00000011,-0.00615107,0.
 00160541,0.00000016,0.00324525,-0.00015165,-0.00000001,0.00018129,-0.0
 0023541,-0.00000002,-0.00017935,-0.00121833,-0.00000007,0.00056271,0.3
 3069639,0.00001612,-0.29688577,-0.00136625,-0.00000009,0.00207884,0.00
 222335,0.00000015,-0.00021632,-0.00072810,-0.00000005,0.00005702,-0.00
 107210,-0.00000006,0.00017973,-0.37266897,-0.00001798,0.28292618,-0.00
 005995,-0.00000001,0.00025508,-0.00013912,0.00000002,0.00015005,0.0022
 0251,0.00000020,-0.00137601,0.00380646,-0.00000075,-0.02827000,-0.0059
 5662,-0.00000054,-0.00199939,0.00113502,0.00000011,-0.00141254,-0.0000
 2681,0.,0.00004843,-0.00004092,0.,-0.00000980,-0.00068720,-0.00000005,
 0.00061137,-0.07119187,-0.00000035,-0.00288231,-0.00000833,-0.00000001
 ,-0.00002260,-0.00052512,0.,0.00009931,-0.00010102,-0.00000002,-0.0003
 3509,0.00009132,0.,-0.00016075,-0.01244226,-0.00000213,0.05658013,0.08
 394391,-0.00000003,0.00027759,-0.00000001,0.00000007,-0.00053721,-0.00
 000001,0.00000021,-0.00121170,-0.00000002,-0.00000148,0.02134888,-0.00
 000212,-0.00000048,0.00233832,-0.00000013,0.00000010,-0.00106244,-0.00
 000007,0.,-0.00010226,0.,0.,0.00005920,0.,-0.00000003,0.00024873,0.000
 00002,-0.00000007,-0.07362583,0.00000523,-0.00000003,0.00041404,-0.000
 00002,0.,-0.00050260,0.,0.,0.00014166,-0.00000002,0.00000001,0.0000245
 9,0.,-0.00000177,0.02459105,0.00000273,0.00000352,0.02759796,-0.000272
 35,-0.00000001,0.00027207,-0.00078671,-0.00000007,0.00000638,0.0011973
 5,0.00000003,-0.00060913,0.00461692,0.00000086,-0.01568997,-0.00434517
 ,-0.00000028,-0.00089587,0.00092387,0.00000004,-0.00029736,-0.00003643
 ,0.,0.00009800,-0.00017272,-0.00000001,-0.00005435,-0.00097463,-0.0000
 0004,0.00109210,-0.00921719,0.00000313,-0.32058768,0.00028807,0.000000
 03,0.00040459,-0.00011649,0.,0.00032664,-0.00025455,-0.00000003,-0.000
 48342,-0.00007493,-0.00000001,-0.00028197,0.03050086,0.00000194,-0.019
 02783,-0.02127589,-0.00000558,0.35572780\\0.00001499,-0.00000001,-0.00
 002640,0.00001883,0.00000019,0.00002574,-0.00003027,-0.00000009,-0.000
 00050,0.00001571,-0.00000177,-0.00002470,0.00001204,-0.00000013,0.0000
 1946,-0.00002724,-0.00000116,-0.00000192,0.00000352,-0.00000003,0.0000
 0285,0.00000232,0.00000001,-0.00000348,0.00000212,-0.00000008,-0.00000
 315,-0.00000090,0.00000629,-0.00000193,-0.00000500,-0.00000003,-0.0000
 0040,0.00000307,0.00000421,0.00001948,0.00001462,-0.00000149,-0.000006
 49,-0.00001747,-0.00000149,-0.00000194,-0.00001208,-0.00000223,0.00000
 854,0.00000576,-0.00000218,-0.00000516\\\@
 Job cpu time:  0 days  0 hours 37 minutes 42.6 seconds.
 File lengths (MBytes):  RWF=  12534 Int=      0 D2E=      0 Chk=     11 Scr=      1
 Normal termination of Gaussian 09 at Tue Mar 10 23:33:45 2020.
