 Entering Gaussian System, Link 0=g09
 Input=4NBALa_opt.inp
 Output=4NBALa_opt.log
 Initial command:
 /usr/local/g09/l1.exe /home/g09scr/Gau-31486.inp -scrdir=/home/g09scr/
 Entering Link 1 = /usr/local/g09/l1.exe PID=     31488.
  
 Copyright (c) 1988,1990,1992,1993,1995,1998,2003,2009,2010,
            Gaussian, Inc.  All Rights Reserved.
  
 This is part of the Gaussian(R) 09 program.  It is based on
 the Gaussian(R) 03 system (copyright 2003, Gaussian, Inc.),
 the Gaussian(R) 98 system (copyright 1998, Gaussian, Inc.),
 the Gaussian(R) 94 system (copyright 1995, Gaussian, Inc.),
 the Gaussian 92(TM) system (copyright 1992, Gaussian, Inc.),
 the Gaussian 90(TM) system (copyright 1990, Gaussian, Inc.),
 the Gaussian 88(TM) system (copyright 1988, Gaussian, Inc.),
 the Gaussian 86(TM) system (copyright 1986, Carnegie Mellon
 University), and the Gaussian 82(TM) system (copyright 1983,
 Carnegie Mellon University). Gaussian is a federally registered
 trademark of Gaussian, Inc.
  
 This software contains proprietary and confidential information,
 including trade secrets, belonging to Gaussian, Inc.
  
 This software is provided under written license and may be
 used, copied, transmitted, or stored only in accord with that
 written license.
  
 The following legend is applicable only to US Government
 contracts under FAR:
  
                    RESTRICTED RIGHTS LEGEND
  
 Use, reproduction and disclosure by the US Government is
 subject to restrictions as set forth in subparagraphs (a)
 and (c) of the Commercial Computer Software - Restricted
 Rights clause in FAR 52.227-19.
  
 Gaussian, Inc.
 340 Quinnipiac St., Bldg. 40, Wallingford CT 06492
  
  
 ---------------------------------------------------------------
 Warning -- This program may not be used in any manner that
 competes with the business of Gaussian, Inc. or will provide
 assistance to any competitor of Gaussian, Inc.  The licensee
 of this program is prohibited from giving any competitor of
 Gaussian, Inc. access to this program.  By using this program,
 the user acknowledges that Gaussian, Inc. is engaged in the
 business of creating and licensing software in the field of
 computational chemistry and represents and warrants to the
 licensee that it is not a competitor of Gaussian, Inc. and that
 it will not use this program in any manner prohibited above.
 ---------------------------------------------------------------
  

 Cite this work as:
 Gaussian 09, Revision B.01,
 M. J. Frisch, G. W. Trucks, H. B. Schlegel, G. E. Scuseria, 
 M. A. Robb, J. R. Cheeseman, G. Scalmani, V. Barone, B. Mennucci, 
 G. A. Petersson, H. Nakatsuji, M. Caricato, X. Li, H. P. Hratchian, 
 A. F. Izmaylov, J. Bloino, G. Zheng, J. L. Sonnenberg, M. Hada, 
 M. Ehara, K. Toyota, R. Fukuda, J. Hasegawa, M. Ishida, T. Nakajima, 
 Y. Honda, O. Kitao, H. Nakai, T. Vreven, J. A. Montgomery, Jr., 
 J. E. Peralta, F. Ogliaro, M. Bearpark, J. J. Heyd, E. Brothers, 
 K. N. Kudin, V. N. Staroverov, T. Keith, R. Kobayashi, J. Normand, 
 K. Raghavachari, A. Rendell, J. C. Burant, S. S. Iyengar, J. Tomasi, 
 M. Cossi, N. Rega, J. M. Millam, M. Klene, J. E. Knox, J. B. Cross, 
 V. Bakken, C. Adamo, J. Jaramillo, R. Gomperts, R. E. Stratmann, 
 O. Yazyev, A. J. Austin, R. Cammi, C. Pomelli, J. W. Ochterski, 
 R. L. Martin, K. Morokuma, V. G. Zakrzewski, G. A. Voth, 
 P. Salvador, J. J. Dannenberg, S. Dapprich, A. D. Daniels, 
 O. Farkas, J. B. Foresman, J. V. Ortiz, J. Cioslowski, 
 and D. J. Fox, Gaussian, Inc., Wallingford CT, 2010.
 
 ******************************************
 Gaussian 09:  EM64L-G09RevB.01 12-Aug-2010
                11-Mar-2020 
 ******************************************
 %chk=4NBALa_opt.chk
 %nprocshared=6
 Will use up to    6 processors via shared memory.
 %mem=100GB
 ----------------------------------------------------------------------
 #G3MP2 QCISD=(Maxcyc=400) opt=(MaxCycles=400) scf=(MaxCycle=600) test 
 GFInput IOP(6/7=3)
 ----------------------------------------------------------------------
 1/6=400,18=20,19=15,38=1/1,3;
 2/9=110,12=2,17=6,18=5,40=1/2;
 3/5=33,7=1,11=9,16=1,24=10,25=1,30=1,71=1/1,2,3;
 4//1;
 5/5=2,7=600,38=5/2;
 6/7=3,8=2,9=2,10=2,28=1/1;
 7//1,2,3,16;
 1/6=400,18=20,19=15/3(2);
 2/9=110/2;
 99//99;
 2/9=110/2;
 3/5=33,7=1,11=9,16=1,25=1,30=1,71=1/1,2,3;
 4/5=5,16=3/1;
 5/5=2,7=600,38=5/2;
 7//1,2,3,16;
 1/6=400,18=20,19=15/3(-5);
 2/9=110/2;
 6/7=3,8=2,9=2,10=2,19=2,28=1/1;
 99/9=1/99;
 -----------------------------
 4NBALa_opt, G3MP2, qcisd test
 -----------------------------
 Symbolic Z-matrix:
 Charge =  0 Multiplicity = 1
 C
 C                    1    r02
 C                    2    r03      1    a03
 C                    3    r04      2    a04      1    d04      0
 C                    4    r05      3    a05      2    d05      0
 C                    5    r06      4    a06      3    d06      0
 H                    1    r07      2    a07      3    d07      0
 H                    2    r08      3    a08      1    d08      0
 C                    3    r09      4    a09      2    d09      0
 H                    4    r10      5    a10      3    d10      0
 H                    5    r11      6    a11      4    d11      0
 N                    6    r12      1    a12      2    d12      0
 O                    12   r13      6    a13      5    d13      0
 O                    12   r14      6    a14      1    d14      0
 O                    9    r15      3    a15      2    d15      0
 H                    9    r16      3    a16      15   d16      0
       Variables:
  r02                   1.38946                  
  r03                   1.39744                  
  a03                 120.32703                  
  r04                   1.40041                  
  a04                 120.22025                  
  d04                  -0.01851                  
  r05                   1.38595                  
  a05                 120.0991                   
  d05                   0.02321                  
  r06                   1.39302                  
  a06                 118.47191                  
  d06                  -0.01622                  
  r07                   1.08126                  
  a07                 122.32344                  
  d07                 180.00854                  
  r08                   1.08575                  
  a08                 119.6993                   
  d08                 180.02036                  
  r09                   1.48573                  
  a09                 120.04602                  
  d09                 179.96234                  
  r10                   1.08383                  
  a10                 121.2701                   
  d10                 180.02419                  
  r11                   1.08141                  
  a11                 119.32081                  
  d11                 179.98774                  
  r12                   1.47827                  
  a12                 118.60376                  
  d12                 180.00611                  
  r13                   1.22333                  
  a13                 117.43091                  
  d13                 180.00193                  
  r14                   1.22305                  
  a14                 117.46597                  
  d14                 179.99016                  
  r15                   1.20683                  
  a15                 124.27228                  
  d15                 179.95284                  
  r16                   1.11254                  
  a16                 114.39164                  
  d16                 180.00153                  
 

 GradGradGradGradGradGradGradGradGradGradGradGradGradGradGradGradGradGrad
 Berny optimization.
 Initialization pass.
                           ----------------------------
                           !    Initial Parameters    !
                           ! (Angstroms and Degrees)  !
 --------------------------                            --------------------------
 ! Name  Definition              Value          Derivative Info.                !
 --------------------------------------------------------------------------------
 ! R1    R(1,2)                  1.3895         estimate D2E/DX2                !
 ! R2    R(1,6)                  1.3896         estimate D2E/DX2                !
 ! R3    R(1,7)                  1.0813         estimate D2E/DX2                !
 ! R4    R(2,3)                  1.3974         estimate D2E/DX2                !
 ! R5    R(2,8)                  1.0858         estimate D2E/DX2                !
 ! R6    R(3,4)                  1.4004         estimate D2E/DX2                !
 ! R7    R(3,9)                  1.4857         estimate D2E/DX2                !
 ! R8    R(4,5)                  1.3859         estimate D2E/DX2                !
 ! R9    R(4,10)                 1.0838         estimate D2E/DX2                !
 ! R10   R(5,6)                  1.393          estimate D2E/DX2                !
 ! R11   R(5,11)                 1.0814         estimate D2E/DX2                !
 ! R12   R(6,12)                 1.4783         estimate D2E/DX2                !
 ! R13   R(9,15)                 1.2068         estimate D2E/DX2                !
 ! R14   R(9,16)                 1.1125         estimate D2E/DX2                !
 ! R15   R(12,13)                1.2233         estimate D2E/DX2                !
 ! R16   R(12,14)                1.223          estimate D2E/DX2                !
 ! A1    A(2,1,6)              118.2281         estimate D2E/DX2                !
 ! A2    A(2,1,7)              122.3234         estimate D2E/DX2                !
 ! A3    A(6,1,7)              119.4484         estimate D2E/DX2                !
 ! A4    A(1,2,3)              120.327          estimate D2E/DX2                !
 ! A5    A(1,2,8)              119.9737         estimate D2E/DX2                !
 ! A6    A(3,2,8)              119.6993         estimate D2E/DX2                !
 ! A7    A(2,3,4)              120.2203         estimate D2E/DX2                !
 ! A8    A(2,3,9)              119.7337         estimate D2E/DX2                !
 ! A9    A(4,3,9)              120.046          estimate D2E/DX2                !
 ! A10   A(3,4,5)              120.0991         estimate D2E/DX2                !
 ! A11   A(3,4,10)             118.6308         estimate D2E/DX2                !
 ! A12   A(5,4,10)             121.2701         estimate D2E/DX2                !
 ! A13   A(4,5,6)              118.4719         estimate D2E/DX2                !
 ! A14   A(4,5,11)             122.2073         estimate D2E/DX2                !
 ! A15   A(6,5,11)             119.3208         estimate D2E/DX2                !
 ! A16   A(1,6,5)              122.6536         estimate D2E/DX2                !
 ! A17   A(1,6,12)             118.6038         estimate D2E/DX2                !
 ! A18   A(5,6,12)             118.7427         estimate D2E/DX2                !
 ! A19   A(3,9,15)             124.2723         estimate D2E/DX2                !
 ! A20   A(3,9,16)             114.3916         estimate D2E/DX2                !
 ! A21   A(15,9,16)            121.3361         estimate D2E/DX2                !
 ! A22   A(6,12,13)            117.4309         estimate D2E/DX2                !
 ! A23   A(6,12,14)            117.466          estimate D2E/DX2                !
 ! A24   A(13,12,14)           125.1031         estimate D2E/DX2                !
 ! D1    D(6,1,2,3)              0.007          estimate D2E/DX2                !
 ! D2    D(6,1,2,8)            179.9866         estimate D2E/DX2                !
 ! D3    D(7,1,2,3)           -179.9915         estimate D2E/DX2                !
 ! D4    D(7,1,2,8)             -0.0119         estimate D2E/DX2                !
 ! D5    D(2,1,6,5)             -0.0002         estimate D2E/DX2                !
 ! D6    D(2,1,6,12)          -179.9939         estimate D2E/DX2                !
 ! D7    D(7,1,6,5)            179.9983         estimate D2E/DX2                !
 ! D8    D(7,1,6,12)             0.0046         estimate D2E/DX2                !
 ! D9    D(1,2,3,4)             -0.0185         estimate D2E/DX2                !
 ! D10   D(1,2,3,9)           -179.981          estimate D2E/DX2                !
 ! D11   D(8,2,3,4)           -179.9981         estimate D2E/DX2                !
 ! D12   D(8,2,3,9)              0.0394         estimate D2E/DX2                !
 ! D13   D(2,3,4,5)              0.0232         estimate D2E/DX2                !
 ! D14   D(2,3,4,10)           179.9997         estimate D2E/DX2                !
 ! D15   D(9,3,4,5)            179.9856         estimate D2E/DX2                !
 ! D16   D(9,3,4,10)            -0.038          estimate D2E/DX2                !
 ! D17   D(2,3,9,15)           179.9528         estimate D2E/DX2                !
 ! D18   D(2,3,9,16)            -0.0456         estimate D2E/DX2                !
 ! D19   D(4,3,9,15)            -0.0097         estimate D2E/DX2                !
 ! D20   D(4,3,9,16)           179.9918         estimate D2E/DX2                !
 ! D21   D(3,4,5,6)             -0.0162         estimate D2E/DX2                !
 ! D22   D(3,4,5,11)           179.9964         estimate D2E/DX2                !
 ! D23   D(10,4,5,6)          -179.992          estimate D2E/DX2                !
 ! D24   D(10,4,5,11)            0.0206         estimate D2E/DX2                !
 ! D25   D(4,5,6,1)              0.0049         estimate D2E/DX2                !
 ! D26   D(4,5,6,12)           179.9985         estimate D2E/DX2                !
 ! D27   D(11,5,6,1)           179.9926         estimate D2E/DX2                !
 ! D28   D(11,5,6,12)           -0.0137         estimate D2E/DX2                !
 ! D29   D(1,6,12,13)           -0.0041         estimate D2E/DX2                !
 ! D30   D(1,6,12,14)          179.9902         estimate D2E/DX2                !
 ! D31   D(5,6,12,13)         -179.9981         estimate D2E/DX2                !
 ! D32   D(5,6,12,14)           -0.0038         estimate D2E/DX2                !
 --------------------------------------------------------------------------------
 Trust Radius=3.00D-01 FncErr=1.00D-07 GrdErr=1.00D-07
 Number of steps in this run=    100 maximum allowed number of steps=    100.
 GradGradGradGradGradGradGradGradGradGradGradGradGradGradGradGradGradGrad

                          Input orientation:                          
 ---------------------------------------------------------------------
 Center     Atomic      Atomic             Coordinates (Angstroms)
 Number     Number       Type             X           Y           Z
 ---------------------------------------------------------------------
      1          6           0        0.000000    0.000000    0.000000
      2          6           0        0.000000    0.000000    1.389458
      3          6           0        1.206212    0.000000    2.095075
      4          6           0        2.425632   -0.000391    1.406488
      5          6           0        2.441267   -0.000294    0.020628
      6          6           0        1.224299   -0.000150   -0.657237
      7          1           0       -0.913712    0.000136   -0.578148
      8          1           0       -0.940539    0.000335    1.931903
      9          6           0        1.190827   -0.000429    3.580722
     10          1           0        3.345610   -0.000376    1.979492
     11          1           0        3.362723   -0.000529   -0.545390
     12          7           0        1.233990   -0.000013   -2.135476
     13          8           0        0.151923    0.000150   -2.706143
     14          8           0        2.322859    0.000038   -2.692446
     15          8           0        2.181027   -0.001281    4.270611
     16          1           0        0.172882    0.000079    4.029655
 ---------------------------------------------------------------------
                    Distance matrix (angstroms):
                    1          2          3          4          5
     1  C    0.000000
     2  C    1.389458   0.000000
     3  C    2.417496   1.397442   0.000000
     4  C    2.803908   2.425691   1.400406   0.000000
     5  C    2.441354   2.798836   2.414269   1.385949   0.000000
     6  C    1.389557   2.384925   2.752372   2.387920   1.393023
     7  H    1.081260   2.169411   3.411773   3.884584   3.407993
     8  H    2.148689   1.085754   2.152944   3.406929   3.884532
     9  C    3.773545   2.493934   1.485727   2.500407   3.773311
    10  H    3.887351   3.397241   2.142518   1.083833   2.157542
    11  H    3.406664   3.879632   3.409193   2.165172   1.081415
    12  N    2.466372   3.734687   4.230642   3.737047   2.471092
    13  O    2.710404   4.098418   4.915610   4.699307   3.560390
    14  O    3.555972   4.696553   4.916020   4.100223   2.715656
    15  O    4.795310   3.613575   2.383951   2.874549   4.257944
    16  H    4.033361   2.645851   2.193256   3.457728   4.606286
                    6          7          8          9         10
     6  C    0.000000
     7  H    2.139473   0.000000
     8  H    3.374933   2.510194   0.000000
     9  C    4.238092   4.661039   2.694686   0.000000
    10  H    3.384125   4.968233   4.286414   2.684591   0.000000
    11  H    2.141348   4.276561   4.965385   4.662824   2.524940
    12  N    1.478270   2.652903   4.612174   5.716361   4.625137
    13  O    2.312575   2.379904   4.764970   6.372127   5.670521
    14  O    2.312771   3.865960   5.659891   6.374491   4.782575
    15  O    5.019862   5.752206   3.900479   1.206832   2.570113
    16  H    4.803377   4.734187   2.374925   1.112544   3.777482
                   11         12         13         14         15
    11  H    0.000000
    12  N    2.657043   0.000000
    13  O    3.870154   1.223328   0.000000
    14  O    2.385617   1.223049   2.170979   0.000000
    15  O    4.958858   6.475711   7.265835   6.964501   0.000000
    16  H    5.577286   6.255780   6.735830   7.057552   2.022550
                   16
    16  H    0.000000
 Stoichiometry    C7H5NO3
 Framework group  C1[X(C7H5NO3)]
 Deg. of freedom    42
 Full point group                 C1      NOp   1
 Largest Abelian subgroup         C1      NOp   1
 Largest concise Abelian subgroup C1      NOp   1
                         Standard orientation:                         
 ---------------------------------------------------------------------
 Center     Atomic      Atomic             Coordinates (Angstroms)
 Number     Number       Type             X           Y           Z
 ---------------------------------------------------------------------
      1          6           0        0.471592    1.276260   -0.000063
      2          6           0       -0.914581    1.371745    0.000090
      3          6           0       -1.701422    0.216875    0.000386
      4          6           0       -1.098263   -1.046982    0.000140
      5          6           0        0.283247   -1.157818    0.000086
      6          6           0        1.043140    0.009690   -0.000064
      7          1           0        1.111164    2.148081   -0.000156
      8          1           0       -1.391109    2.347338    0.000316
      9          6           0       -3.182500    0.334319    0.000119
     10          1           0       -1.733134   -1.925408    0.000385
     11          1           0        0.784603   -2.115993   -0.000045
     12          7           0        2.517218   -0.101565   -0.000089
     13          8           0        3.160897    0.938727   -0.000185
     14          8           0        2.998044   -1.226135    0.000097
     15          8           0       -3.938805   -0.606130   -0.000478
     16          1           0       -3.560417    1.380709    0.000492
 ---------------------------------------------------------------------
 Rotational constants (GHZ):      3.6684384      0.5894153      0.5078224
 Standard basis: GTBas1 (6D, 7F)
 AO basis set in the form of general basis input (Overlap normalization):
      1 0
 S   6 1.00       0.000000000000
      0.3047524880D+04  0.1834737132D-02
      0.4573695180D+03  0.1403732281D-01
      0.1039486850D+03  0.6884262226D-01
      0.2921015530D+02  0.2321844432D+00
      0.9286662960D+01  0.4679413484D+00
      0.3163926960D+01  0.3623119853D+00
 SP   3 1.00       0.000000000000
      0.7868272350D+01 -0.1193324198D+00  0.6899906659D-01
      0.1881288540D+01 -0.1608541517D+00  0.3164239610D+00
      0.5442492580D+00  0.1143456438D+01  0.7443082909D+00
 SP   1 1.00       0.000000000000
      0.1687144782D+00  0.1000000000D+01  0.1000000000D+01
 D   1 1.00       0.000000000000
      0.8000000000D+00  0.1000000000D+01
 ****
      2 0
 S   6 1.00       0.000000000000
      0.3047524880D+04  0.1834737132D-02
      0.4573695180D+03  0.1403732281D-01
      0.1039486850D+03  0.6884262226D-01
      0.2921015530D+02  0.2321844432D+00
      0.9286662960D+01  0.4679413484D+00
      0.3163926960D+01  0.3623119853D+00
 SP   3 1.00       0.000000000000
      0.7868272350D+01 -0.1193324198D+00  0.6899906659D-01
      0.1881288540D+01 -0.1608541517D+00  0.3164239610D+00
      0.5442492580D+00  0.1143456438D+01  0.7443082909D+00
 SP   1 1.00       0.000000000000
      0.1687144782D+00  0.1000000000D+01  0.1000000000D+01
 D   1 1.00       0.000000000000
      0.8000000000D+00  0.1000000000D+01
 ****
      3 0
 S   6 1.00       0.000000000000
      0.3047524880D+04  0.1834737132D-02
      0.4573695180D+03  0.1403732281D-01
      0.1039486850D+03  0.6884262226D-01
      0.2921015530D+02  0.2321844432D+00
      0.9286662960D+01  0.4679413484D+00
      0.3163926960D+01  0.3623119853D+00
 SP   3 1.00       0.000000000000
      0.7868272350D+01 -0.1193324198D+00  0.6899906659D-01
      0.1881288540D+01 -0.1608541517D+00  0.3164239610D+00
      0.5442492580D+00  0.1143456438D+01  0.7443082909D+00
 SP   1 1.00       0.000000000000
      0.1687144782D+00  0.1000000000D+01  0.1000000000D+01
 D   1 1.00       0.000000000000
      0.8000000000D+00  0.1000000000D+01
 ****
      4 0
 S   6 1.00       0.000000000000
      0.3047524880D+04  0.1834737132D-02
      0.4573695180D+03  0.1403732281D-01
      0.1039486850D+03  0.6884262226D-01
      0.2921015530D+02  0.2321844432D+00
      0.9286662960D+01  0.4679413484D+00
      0.3163926960D+01  0.3623119853D+00
 SP   3 1.00       0.000000000000
      0.7868272350D+01 -0.1193324198D+00  0.6899906659D-01
      0.1881288540D+01 -0.1608541517D+00  0.3164239610D+00
      0.5442492580D+00  0.1143456438D+01  0.7443082909D+00
 SP   1 1.00       0.000000000000
      0.1687144782D+00  0.1000000000D+01  0.1000000000D+01
 D   1 1.00       0.000000000000
      0.8000000000D+00  0.1000000000D+01
 ****
      5 0
 S   6 1.00       0.000000000000
      0.3047524880D+04  0.1834737132D-02
      0.4573695180D+03  0.1403732281D-01
      0.1039486850D+03  0.6884262226D-01
      0.2921015530D+02  0.2321844432D+00
      0.9286662960D+01  0.4679413484D+00
      0.3163926960D+01  0.3623119853D+00
 SP   3 1.00       0.000000000000
      0.7868272350D+01 -0.1193324198D+00  0.6899906659D-01
      0.1881288540D+01 -0.1608541517D+00  0.3164239610D+00
      0.5442492580D+00  0.1143456438D+01  0.7443082909D+00
 SP   1 1.00       0.000000000000
      0.1687144782D+00  0.1000000000D+01  0.1000000000D+01
 D   1 1.00       0.000000000000
      0.8000000000D+00  0.1000000000D+01
 ****
      6 0
 S   6 1.00       0.000000000000
      0.3047524880D+04  0.1834737132D-02
      0.4573695180D+03  0.1403732281D-01
      0.1039486850D+03  0.6884262226D-01
      0.2921015530D+02  0.2321844432D+00
      0.9286662960D+01  0.4679413484D+00
      0.3163926960D+01  0.3623119853D+00
 SP   3 1.00       0.000000000000
      0.7868272350D+01 -0.1193324198D+00  0.6899906659D-01
      0.1881288540D+01 -0.1608541517D+00  0.3164239610D+00
      0.5442492580D+00  0.1143456438D+01  0.7443082909D+00
 SP   1 1.00       0.000000000000
      0.1687144782D+00  0.1000000000D+01  0.1000000000D+01
 D   1 1.00       0.000000000000
      0.8000000000D+00  0.1000000000D+01
 ****
      7 0
 S   3 1.00       0.000000000000
      0.1873113696D+02  0.3349460434D-01
      0.2825394365D+01  0.2347269535D+00
      0.6401216923D+00  0.8137573261D+00
 S   1 1.00       0.000000000000
      0.1612777588D+00  0.1000000000D+01
 ****
      8 0
 S   3 1.00       0.000000000000
      0.1873113696D+02  0.3349460434D-01
      0.2825394365D+01  0.2347269535D+00
      0.6401216923D+00  0.8137573261D+00
 S   1 1.00       0.000000000000
      0.1612777588D+00  0.1000000000D+01
 ****
      9 0
 S   6 1.00       0.000000000000
      0.3047524880D+04  0.1834737132D-02
      0.4573695180D+03  0.1403732281D-01
      0.1039486850D+03  0.6884262226D-01
      0.2921015530D+02  0.2321844432D+00
      0.9286662960D+01  0.4679413484D+00
      0.3163926960D+01  0.3623119853D+00
 SP   3 1.00       0.000000000000
      0.7868272350D+01 -0.1193324198D+00  0.6899906659D-01
      0.1881288540D+01 -0.1608541517D+00  0.3164239610D+00
      0.5442492580D+00  0.1143456438D+01  0.7443082909D+00
 SP   1 1.00       0.000000000000
      0.1687144782D+00  0.1000000000D+01  0.1000000000D+01
 D   1 1.00       0.000000000000
      0.8000000000D+00  0.1000000000D+01
 ****
     10 0
 S   3 1.00       0.000000000000
      0.1873113696D+02  0.3349460434D-01
      0.2825394365D+01  0.2347269535D+00
      0.6401216923D+00  0.8137573261D+00
 S   1 1.00       0.000000000000
      0.1612777588D+00  0.1000000000D+01
 ****
     11 0
 S   3 1.00       0.000000000000
      0.1873113696D+02  0.3349460434D-01
      0.2825394365D+01  0.2347269535D+00
      0.6401216923D+00  0.8137573261D+00
 S   1 1.00       0.000000000000
      0.1612777588D+00  0.1000000000D+01
 ****
     12 0
 S   6 1.00       0.000000000000
      0.4173511460D+04  0.1834772160D-02
      0.6274579110D+03  0.1399462700D-01
      0.1429020930D+03  0.6858655181D-01
      0.4023432930D+02  0.2322408730D+00
      0.1282021290D+02  0.4690699481D+00
      0.4390437010D+01  0.3604551991D+00
 SP   3 1.00       0.000000000000
      0.1162636186D+02 -0.1149611817D+00  0.6757974388D-01
      0.2716279807D+01 -0.1691174786D+00  0.3239072959D+00
      0.7722183966D+00  0.1145851947D+01  0.7408951398D+00
 SP   1 1.00       0.000000000000
      0.2120314975D+00  0.1000000000D+01  0.1000000000D+01
 D   1 1.00       0.000000000000
      0.8000000000D+00  0.1000000000D+01
 ****
     13 0
 S   6 1.00       0.000000000000
      0.5484671660D+04  0.1831074430D-02
      0.8252349460D+03  0.1395017220D-01
      0.1880469580D+03  0.6844507810D-01
      0.5296450000D+02  0.2327143360D+00
      0.1689757040D+02  0.4701928980D+00
      0.5799635340D+01  0.3585208530D+00
 SP   3 1.00       0.000000000000
      0.1553961625D+02 -0.1107775495D+00  0.7087426823D-01
      0.3599933586D+01 -0.1480262627D+00  0.3397528391D+00
      0.1013761750D+01  0.1130767015D+01  0.7271585773D+00
 SP   1 1.00       0.000000000000
      0.2700058226D+00  0.1000000000D+01  0.1000000000D+01
 D   1 1.00       0.000000000000
      0.8000000000D+00  0.1000000000D+01
 ****
     14 0
 S   6 1.00       0.000000000000
      0.5484671660D+04  0.1831074430D-02
      0.8252349460D+03  0.1395017220D-01
      0.1880469580D+03  0.6844507810D-01
      0.5296450000D+02  0.2327143360D+00
      0.1689757040D+02  0.4701928980D+00
      0.5799635340D+01  0.3585208530D+00
 SP   3 1.00       0.000000000000
      0.1553961625D+02 -0.1107775495D+00  0.7087426823D-01
      0.3599933586D+01 -0.1480262627D+00  0.3397528391D+00
      0.1013761750D+01  0.1130767015D+01  0.7271585773D+00
 SP   1 1.00       0.000000000000
      0.2700058226D+00  0.1000000000D+01  0.1000000000D+01
 D   1 1.00       0.000000000000
      0.8000000000D+00  0.1000000000D+01
 ****
     15 0
 S   6 1.00       0.000000000000
      0.5484671660D+04  0.1831074430D-02
      0.8252349460D+03  0.1395017220D-01
      0.1880469580D+03  0.6844507810D-01
      0.5296450000D+02  0.2327143360D+00
      0.1689757040D+02  0.4701928980D+00
      0.5799635340D+01  0.3585208530D+00
 SP   3 1.00       0.000000000000
      0.1553961625D+02 -0.1107775495D+00  0.7087426823D-01
      0.3599933586D+01 -0.1480262627D+00  0.3397528391D+00
      0.1013761750D+01  0.1130767015D+01  0.7271585773D+00
 SP   1 1.00       0.000000000000
      0.2700058226D+00  0.1000000000D+01  0.1000000000D+01
 D   1 1.00       0.000000000000
      0.8000000000D+00  0.1000000000D+01
 ****
     16 0
 S   3 1.00       0.000000000000
      0.1873113696D+02  0.3349460434D-01
      0.2825394365D+01  0.2347269535D+00
      0.6401216923D+00  0.8137573261D+00
 S   1 1.00       0.000000000000
      0.1612777588D+00  0.1000000000D+01
 ****

 There are   175 symmetry adapted basis functions of A   symmetry.
 Integral buffers will be    131072 words long.
 Raffenetti 1 integral format.
 Two-electron integral symmetry is turned on.
   175 basis functions,   328 primitive gaussians,   175 cartesian basis functions
    39 alpha electrons       39 beta electrons
       nuclear repulsion energy       554.9095733815 Hartrees.
 NAtoms=   16 NActive=   16 NUniq=   16 SFac= 1.00D+00 NAtFMM=   50 NAOKFM=F Big=F
 One-electron integrals computed using PRISM.
 NBasis=   175 RedAO= T  NBF=   175
 NBsUse=   175 1.00D-06 NBFU=   175
 Harris functional with IExCor=  205 diagonalized for initial guess.
 ExpMin= 1.61D-01 ExpMax= 5.48D+03 ExpMxC= 8.25D+02 IAcc=1 IRadAn=         1 AccDes= 0.00D+00
 HarFok:  IExCor=  205 AccDes= 0.00D+00 IRadAn=         1 IDoV= 1
 ScaDFX=  1.000000  1.000000  1.000000  1.000000
 FoFCou: FMM=F IPFlag=           0 FMFlag=      100000 FMFlg1=           0
         NFxFlg=           0 DoJE=T BraDBF=F KetDBF=T FulRan=T
         Omega=  0.000000  0.000000  1.000000  0.000000  0.000000 ICntrl=     500 IOpCl=  0
         NMat0=    1 NMatS0=    1 NMatT0=    0 NMatD0=    1 NMtDS0=    0 NMtDT0=    0
         I1Cent=           4 NGrid=           0.
 Petite list used in FoFCou.
 Initial guess orbital symmetries:
       Occupied  (A) (A) (A) (A) (A) (A) (A) (A) (A) (A) (A) (A)
                 (A) (A) (A) (A) (A) (A) (A) (A) (A) (A) (A) (A)
                 (A) (A) (A) (A) (A) (A) (A) (A) (A) (A) (A) (A)
                 (A) (A) (A)
       Virtual   (A) (A) (A) (A) (A) (A) (A) (A) (A) (A) (A) (A)
                 (A) (A) (A) (A) (A) (A) (A) (A) (A) (A) (A) (A)
                 (A) (A) (A) (A) (A) (A) (A) (A) (A) (A) (A) (A)
                 (A) (A) (A) (A) (A) (A) (A) (A) (A) (A) (A) (A)
                 (A) (A) (A) (A) (A) (A) (A) (A) (A) (A) (A) (A)
                 (A) (A) (A) (A) (A) (A) (A) (A) (A) (A) (A) (A)
                 (A) (A) (A) (A) (A) (A) (A) (A) (A) (A) (A) (A)
                 (A) (A) (A) (A) (A) (A) (A) (A) (A) (A) (A) (A)
                 (A) (A) (A) (A) (A) (A) (A) (A) (A) (A) (A) (A)
                 (A) (A) (A) (A) (A) (A) (A) (A) (A) (A) (A) (A)
                 (A) (A) (A) (A) (A) (A) (A) (A) (A) (A) (A) (A)
                 (A) (A) (A) (A)
 The electronic state of the initial guess is 1-A.
 Requested convergence on RMS density matrix=1.00D-08 within 600 cycles.
 Requested convergence on MAX density matrix=1.00D-06.
 Requested convergence on             energy=1.00D-06.
 No special actions if energy rises.
 Keep R1 ints in memory in canonical form, NReq=121771872.
 SCF Done:  E(RHF) =  -546.895810725     A.U. after   16 cycles
             Convg  =    0.3259D-08             -V/T =  2.0028

 **********************************************************************

            Population analysis using the SCF density.

 **********************************************************************

 Orbital symmetries:
       Occupied  (A) (A) (A) (A) (A) (A) (A) (A) (A) (A) (A) (A)
                 (A) (A) (A) (A) (A) (A) (A) (A) (A) (A) (A) (A)
                 (A) (A) (A) (A) (A) (A) (A) (A) (A) (A) (A) (A)
                 (A) (A) (A)
       Virtual   (A) (A) (A) (A) (A) (A) (A) (A) (A) (A) (A) (A)
                 (A) (A) (A) (A) (A) (A) (A) (A) (A) (A) (A) (A)
                 (A) (A) (A) (A) (A) (A) (A) (A) (A) (A) (A) (A)
                 (A) (A) (A) (A) (A) (A) (A) (A) (A) (A) (A) (A)
                 (A) (A) (A) (A) (A) (A) (A) (A) (A) (A) (A) (A)
                 (A) (A) (A) (A) (A) (A) (A) (A) (A) (A) (A) (A)
                 (A) (A) (A) (A) (A) (A) (A) (A) (A) (A) (A) (A)
                 (A) (A) (A) (A) (A) (A) (A) (A) (A) (A) (A) (A)
                 (A) (A) (A) (A) (A) (A) (A) (A) (A) (A) (A) (A)
                 (A) (A) (A) (A) (A) (A) (A) (A) (A) (A) (A) (A)
                 (A) (A) (A) (A) (A) (A) (A) (A) (A) (A) (A) (A)
                 (A) (A) (A) (A)
 The electronic state is 1-A.
 Alpha  occ. eigenvalues --  -20.61994 -20.61949 -20.59097 -15.87076 -11.36193
 Alpha  occ. eigenvalues --  -11.33050 -11.29095 -11.28956 -11.28821 -11.28808
 Alpha  occ. eigenvalues --  -11.28228  -1.61696  -1.41769  -1.41042  -1.21525
 Alpha  occ. eigenvalues --   -1.11497  -1.06781  -0.99332  -0.88909  -0.87466
 Alpha  occ. eigenvalues --   -0.81326  -0.79039  -0.73805  -0.72771  -0.72015
 Alpha  occ. eigenvalues --   -0.68467  -0.66517  -0.64465  -0.63715  -0.59833
 Alpha  occ. eigenvalues --   -0.57777  -0.54222  -0.52969  -0.50169  -0.50022
 Alpha  occ. eigenvalues --   -0.45969  -0.45003  -0.38829  -0.38014
 Alpha virt. eigenvalues --    0.01903   0.09985   0.11377   0.20732   0.21742
 Alpha virt. eigenvalues --    0.24025   0.28625   0.30004   0.31379   0.34561
 Alpha virt. eigenvalues --    0.35541   0.39394   0.40542   0.44213   0.47976
 Alpha virt. eigenvalues --    0.48648   0.50034   0.55050   0.60896   0.67142
 Alpha virt. eigenvalues --    0.68284   0.69399   0.71773   0.73000   0.73745
 Alpha virt. eigenvalues --    0.76700   0.77365   0.78187   0.79277   0.79621
 Alpha virt. eigenvalues --    0.82140   0.86002   0.86076   0.90513   0.92308
 Alpha virt. eigenvalues --    0.95289   0.96661   1.00787   1.00974   1.01904
 Alpha virt. eigenvalues --    1.02868   1.04853   1.06132   1.07364   1.07835
 Alpha virt. eigenvalues --    1.10031   1.15529   1.16581   1.17526   1.21045
 Alpha virt. eigenvalues --    1.21973   1.22384   1.27004   1.27055   1.27958
 Alpha virt. eigenvalues --    1.28495   1.32038   1.34777   1.38798   1.43459
 Alpha virt. eigenvalues --    1.44811   1.45109   1.50751   1.53159   1.55292
 Alpha virt. eigenvalues --    1.57464   1.61686   1.63399   1.64089   1.67386
 Alpha virt. eigenvalues --    1.70306   1.71281   1.73385   1.73866   1.79559
 Alpha virt. eigenvalues --    1.84643   1.96896   1.97426   1.97475   2.01136
 Alpha virt. eigenvalues --    2.01813   2.03173   2.06564   2.08968   2.11143
 Alpha virt. eigenvalues --    2.13225   2.15304   2.19382   2.23437   2.26159
 Alpha virt. eigenvalues --    2.28765   2.28823   2.32806   2.34250   2.37704
 Alpha virt. eigenvalues --    2.41835   2.43062   2.43507   2.46305   2.49602
 Alpha virt. eigenvalues --    2.56041   2.58540   2.60259   2.64228   2.66869
 Alpha virt. eigenvalues --    2.70639   2.81400   2.82716   2.87016   2.88304
 Alpha virt. eigenvalues --    2.93161   2.95868   3.04165   3.04502   3.07612
 Alpha virt. eigenvalues --    3.10311   3.14470   3.22004   3.23697   3.25700
 Alpha virt. eigenvalues --    3.32047   3.40652   3.43831   3.54878   3.78422
 Alpha virt. eigenvalues --    4.12535   4.27255   4.31212   4.38703   4.47338
 Alpha virt. eigenvalues --    4.49646   4.51767   4.62048   4.70578   4.82652
 Alpha virt. eigenvalues --    5.11164
     Molecular Orbital Coefficients:
                           1         2         3         4         5
                           O         O         O         O         O
     Eigenvalues --   -20.61994 -20.61949 -20.59097 -15.87076 -11.36193
   1 1   C  1S          0.00000   0.00000   0.00000  -0.00001  -0.00003
   2        2S         -0.00001   0.00005   0.00002  -0.00007  -0.00025
   3        2PX         0.00002  -0.00001   0.00000   0.00000  -0.00004
   4        2PY        -0.00001   0.00000   0.00000  -0.00001   0.00000
   5        2PZ         0.00000   0.00000   0.00000   0.00000   0.00000
   6        3S          0.00044  -0.00055  -0.00037   0.00130   0.00413
   7        3PX         0.00011  -0.00015   0.00017  -0.00112  -0.00160
   8        3PY        -0.00021   0.00066   0.00010  -0.00076  -0.00151
   9        3PZ         0.00000   0.00000   0.00000   0.00000   0.00000
  10        4XX         0.00000  -0.00002   0.00000  -0.00003   0.00007
  11        4YY         0.00002  -0.00005   0.00000   0.00003  -0.00002
  12        4ZZ         0.00000   0.00001   0.00001  -0.00004  -0.00008
  13        4XY        -0.00001   0.00002   0.00000   0.00005   0.00000
  14        4XZ         0.00000   0.00000   0.00000   0.00000   0.00000
  15        4YZ         0.00000   0.00000   0.00000   0.00000   0.00000
  16 2   C  1S          0.00001   0.00000   0.00000  -0.00001   0.00000
  17        2S          0.00003   0.00000   0.00001  -0.00001   0.00007
  18        2PX         0.00000   0.00001  -0.00002  -0.00003   0.00018
  19        2PY        -0.00001   0.00000  -0.00001   0.00003   0.00000
  20        2PZ         0.00000   0.00000   0.00000   0.00000   0.00000
  21        3S         -0.00028   0.00012   0.00026  -0.00109  -0.00468
  22        3PX         0.00002  -0.00016   0.00023  -0.00037  -0.00169
  23        3PY         0.00022  -0.00027  -0.00011   0.00017   0.00223
  24        3PZ         0.00000   0.00000   0.00000   0.00000   0.00000
  25        4XX         0.00000   0.00001  -0.00001   0.00000  -0.00005
  26        4YY         0.00000   0.00000   0.00002  -0.00001   0.00006
  27        4ZZ         0.00001   0.00000   0.00000  -0.00002   0.00000
  28        4XY         0.00000   0.00000   0.00000   0.00000   0.00002
  29        4XZ         0.00000   0.00000   0.00000   0.00000   0.00000
  30        4YZ         0.00000   0.00000   0.00000   0.00000   0.00000
  31 3   C  1S          0.00000   0.00000   0.00000  -0.00001   0.00466
  32        2S          0.00000   0.00000   0.00000  -0.00003   0.00027
  33        2PX         0.00000   0.00000   0.00002  -0.00005   0.00004
  34        2PY         0.00000   0.00000   0.00001   0.00000  -0.00012
  35        2PZ         0.00000   0.00000   0.00000   0.00000   0.00000
  36        3S         -0.00004  -0.00006  -0.00010   0.00018   0.00372
  37        3PX         0.00003  -0.00005  -0.00001   0.00069   0.00117
  38        3PY         0.00029  -0.00026  -0.00016  -0.00003   0.00281
  39        3PZ         0.00000   0.00000   0.00000   0.00000   0.00000
  40        4XX         0.00000   0.00000  -0.00001  -0.00002  -0.00066
  41        4YY         0.00000   0.00000   0.00002   0.00001  -0.00028
  42        4ZZ         0.00000   0.00000  -0.00002  -0.00002  -0.00014
  43        4XY         0.00001  -0.00001  -0.00008   0.00000   0.00012
  44        4XZ         0.00000   0.00000   0.00000   0.00000   0.00000
  45        4YZ         0.00000   0.00000   0.00000   0.00000   0.00000
  46 4   C  1S          0.00000   0.00001   0.00000   0.00000  -0.00001
  47        2S          0.00000   0.00003  -0.00001  -0.00001  -0.00009
  48        2PX         0.00001   0.00000   0.00000  -0.00004   0.00006
  49        2PY        -0.00001   0.00001   0.00000  -0.00003   0.00003
  50        2PZ         0.00000   0.00000   0.00000   0.00000   0.00000
  51        3S          0.00012  -0.00024   0.00020  -0.00109  -0.00061
  52        3PX        -0.00012  -0.00001   0.00016  -0.00040  -0.00221
  53        3PY         0.00029  -0.00017  -0.00015  -0.00011   0.00014
  54        3PZ         0.00000   0.00000   0.00000   0.00000   0.00000
  55        4XX         0.00001   0.00000   0.00001   0.00000   0.00002
  56        4YY         0.00000   0.00000  -0.00004  -0.00001   0.00012
  57        4ZZ         0.00000   0.00001   0.00000  -0.00002  -0.00003
  58        4XY         0.00000   0.00000   0.00000   0.00000  -0.00006
  59        4XZ         0.00000   0.00000   0.00000   0.00000   0.00000
  60        4YZ         0.00000   0.00000   0.00000   0.00000   0.00000
  61 5   C  1S          0.00000   0.00000   0.00000  -0.00001  -0.00001
  62        2S          0.00005  -0.00001   0.00002  -0.00007  -0.00009
  63        2PX        -0.00001   0.00002   0.00000   0.00000  -0.00001
  64        2PY         0.00000   0.00001   0.00000   0.00001   0.00002
  65        2PZ         0.00000   0.00000   0.00000   0.00000   0.00000
  66        3S         -0.00058   0.00036  -0.00025   0.00132   0.00197
  67        3PX        -0.00027   0.00011   0.00017  -0.00100  -0.00145
  68        3PY        -0.00064   0.00011  -0.00001   0.00093   0.00038
  69        3PZ         0.00000   0.00000   0.00000   0.00000   0.00000
  70        4XX        -0.00002   0.00000  -0.00001  -0.00004   0.00001
  71        4YY        -0.00004   0.00001   0.00000   0.00004  -0.00001
  72        4ZZ         0.00001   0.00000   0.00001  -0.00004  -0.00003
  73        4XY        -0.00002   0.00001   0.00000  -0.00003  -0.00002
  74        4XZ         0.00000   0.00000   0.00000   0.00000   0.00000
  75        4YZ         0.00000   0.00000   0.00000   0.00000   0.00000
  76 6   C  1S          0.00000  -0.00001   0.00000   0.00000   0.00002
  77        2S         -0.00002  -0.00002  -0.00001   0.00013   0.00006
  78        2PX        -0.00004  -0.00005   0.00000   0.00016  -0.00001
  79        2PY         0.00004  -0.00003   0.00000  -0.00001   0.00000
  80        2PZ         0.00000   0.00000   0.00000   0.00000   0.00000
  81        3S          0.00010   0.00013   0.00009   0.00116  -0.00144
  82        3PX        -0.00054  -0.00049  -0.00015   0.00349   0.00129
  83        3PY        -0.00080   0.00079   0.00007  -0.00026  -0.00107
  84        3PZ         0.00000   0.00000   0.00000   0.00000   0.00000
  85        4XX        -0.00004  -0.00007   0.00000   0.00010   0.00002
  86        4YY         0.00000   0.00003   0.00000  -0.00007   0.00000
  87        4ZZ        -0.00002  -0.00003   0.00000  -0.00008   0.00001
  88        4XY         0.00010  -0.00008   0.00000  -0.00001   0.00002
  89        4XZ         0.00000   0.00000   0.00000   0.00000   0.00000
  90        4YZ         0.00000   0.00000   0.00000   0.00000   0.00000
  91 7   H  1S          0.00000   0.00002   0.00000   0.00006   0.00004
  92        2S          0.00001  -0.00031  -0.00004   0.00038   0.00051
  93 8   H  1S         -0.00001   0.00001   0.00002   0.00001  -0.00016
  94        2S         -0.00006   0.00006   0.00004   0.00001  -0.00071
  95 9   C  1S          0.00000   0.00000  -0.00001   0.00000   0.99575
  96        2S          0.00001   0.00001   0.00043  -0.00002   0.02674
  97        2PX         0.00000   0.00000   0.00007   0.00001  -0.00019
  98        2PY         0.00000   0.00000   0.00010  -0.00001  -0.00062
  99        2PZ         0.00000   0.00000   0.00000   0.00000   0.00000
 100        3S          0.00001  -0.00002  -0.00038   0.00049  -0.00625
 101        3PX        -0.00003  -0.00002   0.00046   0.00020  -0.00200
 102        3PY        -0.00009   0.00008   0.00055  -0.00009  -0.00334
 103        3PZ         0.00000   0.00000   0.00000   0.00000   0.00000
 104        4XX         0.00000   0.00000  -0.00037   0.00001  -0.00134
 105        4YY         0.00000   0.00000  -0.00052   0.00000  -0.00128
 106        4ZZ         0.00000   0.00000  -0.00003  -0.00001  -0.00248
 107        4XY         0.00000   0.00000  -0.00044   0.00000   0.00058
 108        4XZ         0.00000   0.00000   0.00000   0.00000   0.00000
 109        4YZ         0.00000   0.00000   0.00000   0.00000   0.00000
 110 10  H  1S          0.00001   0.00000   0.00002   0.00001  -0.00014
 111        2S          0.00005  -0.00004  -0.00013   0.00001  -0.00037
 112 11  H  1S          0.00002   0.00000   0.00000   0.00006   0.00001
 113        2S         -0.00031  -0.00003  -0.00001   0.00039   0.00023
 114 12  N  1S          0.00003   0.00003   0.00000   0.99527   0.00000
 115        2S          0.00034   0.00038  -0.00001   0.02424   0.00003
 116        2PX         0.00004   0.00006   0.00000   0.00037   0.00000
 117        2PY        -0.00014   0.00011   0.00000  -0.00003  -0.00001
 118        2PZ         0.00000   0.00000   0.00000   0.00000   0.00000
 119        3S          0.00000   0.00000   0.00011  -0.00380  -0.00075
 120        3PX        -0.00049  -0.00066  -0.00002   0.00190   0.00008
 121        3PY         0.00073  -0.00057  -0.00002  -0.00015   0.00052
 122        3PZ         0.00000   0.00000   0.00000   0.00000   0.00000
 123        4XX        -0.00006  -0.00018   0.00000  -0.00308   0.00000
 124        4YY        -0.00076  -0.00075   0.00000  -0.00251  -0.00003
 125        4ZZ         0.00000   0.00000   0.00000  -0.00330   0.00001
 126        4XY         0.00035  -0.00041   0.00000   0.00005   0.00001
 127        4XZ         0.00000   0.00000   0.00000   0.00000   0.00000
 128        4YZ         0.00000   0.00000   0.00000   0.00000   0.00000
 129 13  O  1S         -0.05873   0.99300   0.00000  -0.00019  -0.00001
 130        2S         -0.00129   0.02094   0.00000   0.00020  -0.00002
 131        2PX         0.00002  -0.00098   0.00000  -0.00007   0.00002
 132        2PY         0.00012  -0.00151   0.00000  -0.00014   0.00000
 133        2PZ         0.00000   0.00000   0.00000   0.00000   0.00000
 134        3S         -0.00017   0.00439  -0.00002   0.00000  -0.00003
 135        3PX        -0.00008   0.00006   0.00001  -0.00008  -0.00002
 136        3PY        -0.00011   0.00008   0.00001   0.00024   0.00001
 137        3PZ         0.00000   0.00000   0.00000   0.00000   0.00000
 138        4XX         0.00032  -0.00372   0.00000  -0.00007  -0.00001
 139        4YY         0.00016  -0.00369   0.00000  -0.00024  -0.00001
 140        4ZZ         0.00014  -0.00403   0.00000   0.00013  -0.00004
 141        4XY         0.00011   0.00008   0.00000  -0.00014   0.00000
 142        4XZ         0.00000   0.00000   0.00000   0.00000   0.00000
 143        4YZ         0.00000   0.00000   0.00000   0.00000   0.00000
 144 14  O  1S          0.99300   0.05872   0.00000  -0.00019  -0.00002
 145        2S          0.02094   0.00118   0.00001   0.00020  -0.00007
 146        2PX        -0.00074  -0.00009   0.00000  -0.00005   0.00000
 147        2PY         0.00165   0.00007   0.00000   0.00015   0.00001
 148        2PZ         0.00000   0.00000   0.00000   0.00000   0.00000
 149        3S          0.00438   0.00035  -0.00005   0.00000   0.00059
 150        3PX         0.00005  -0.00005   0.00001  -0.00011  -0.00012
 151        3PY        -0.00010   0.00011  -0.00001  -0.00022   0.00020
 152        3PZ         0.00000   0.00000   0.00000   0.00000   0.00000
 153        4XX        -0.00375  -0.00015   0.00000  -0.00004  -0.00004
 154        4YY        -0.00366  -0.00024   0.00000  -0.00027  -0.00002
 155        4ZZ        -0.00401  -0.00034   0.00001   0.00013  -0.00005
 156        4XY        -0.00006  -0.00014   0.00000   0.00010  -0.00002
 157        4XZ         0.00000   0.00000   0.00000   0.00000   0.00000
 158        4YZ         0.00000   0.00000   0.00000   0.00000   0.00000
 159 15  O  1S          0.00000   0.00000   0.99469   0.00000  -0.00030
 160        2S          0.00001   0.00000   0.02094   0.00002   0.00071
 161        2PX         0.00000   0.00000   0.00102   0.00000   0.00019
 162        2PY         0.00000   0.00000   0.00122   0.00000   0.00024
 163        2PZ         0.00000   0.00000   0.00000   0.00000   0.00000
 164        3S         -0.00008   0.00003   0.00479  -0.00012  -0.00377
 165        3PX        -0.00001   0.00000   0.00004  -0.00006  -0.00122
 166        3PY        -0.00001   0.00000   0.00006  -0.00001  -0.00151
 167        3PZ         0.00000   0.00000   0.00000   0.00000   0.00000
 168        4XX         0.00001   0.00000  -0.00378   0.00001   0.00017
 169        4YY         0.00001   0.00000  -0.00370   0.00001   0.00010
 170        4ZZ         0.00001   0.00000  -0.00423   0.00001   0.00045
 171        4XY         0.00000   0.00000   0.00020  -0.00001  -0.00010
 172        4XZ         0.00000   0.00000   0.00000   0.00000   0.00000
 173        4YZ         0.00000   0.00000   0.00000   0.00000   0.00000
 174 16  H  1S          0.00001   0.00000  -0.00004   0.00000   0.00004
 175        2S          0.00003  -0.00004  -0.00013   0.00001   0.00253
                           6         7         8         9        10
                           O         O         O         O         O
     Eigenvalues --   -11.33050 -11.29095 -11.28956 -11.28821 -11.28808
   1 1   C  1S          0.01493   0.88962  -0.43439   0.09593  -0.04281
   2        2S          0.00003   0.02485  -0.01246   0.00277  -0.00128
   3        2PX        -0.00001  -0.00007   0.00024  -0.00010   0.00007
   4        2PY         0.00014  -0.00045   0.00025  -0.00005   0.00005
   5        2PZ         0.00000   0.00000   0.00000   0.00000   0.00000
   6        3S          0.00751  -0.01127   0.01207  -0.00668   0.00110
   7        3PX        -0.00164   0.00059  -0.00246   0.00185  -0.00034
   8        3PY        -0.00356   0.00223  -0.00254   0.00218  -0.00015
   9        3PZ         0.00000   0.00000   0.00000   0.00000   0.00000
  10        4XX        -0.00039  -0.00160   0.00034   0.00018  -0.00005
  11        4YY        -0.00033  -0.00162   0.00050   0.00005   0.00010
  12        4ZZ        -0.00021  -0.00219   0.00092  -0.00015   0.00006
  13        4XY         0.00014  -0.00008   0.00012  -0.00003  -0.00001
  14        4XZ         0.00000   0.00000   0.00000   0.00000   0.00000
  15        4YZ         0.00000   0.00000   0.00000   0.00000   0.00000
  16 2   C  1S          0.00020   0.43500   0.79099  -0.36878   0.20109
  17        2S          0.00004   0.01189   0.02220  -0.01053   0.00563
  18        2PX        -0.00002  -0.00010   0.00025  -0.00001  -0.00001
  19        2PY         0.00003  -0.00004  -0.00018   0.00028  -0.00011
  20        2PZ         0.00000   0.00000   0.00000   0.00000   0.00000
  21        3S         -0.00407   0.00008  -0.01360   0.01119  -0.00479
  22        3PX        -0.00114   0.00116  -0.00224   0.00070   0.00039
  23        3PY         0.00177  -0.00084   0.00269  -0.00331   0.00097
  24        3PZ         0.00000   0.00000   0.00000   0.00000   0.00000
  25        4XX         0.00012  -0.00116  -0.00115   0.00019  -0.00012
  26        4YY         0.00004  -0.00106  -0.00144   0.00027  -0.00015
  27        4ZZ         0.00002  -0.00117  -0.00184   0.00074  -0.00046
  28        4XY        -0.00005   0.00003   0.00004  -0.00017   0.00010
  29        4XZ         0.00000   0.00000   0.00000   0.00000   0.00000
  30        4YZ         0.00000   0.00000   0.00000   0.00000   0.00000
  31 3   C  1S         -0.00029   0.09998   0.41907   0.76905  -0.45331
  32        2S         -0.00022   0.00271   0.01154   0.02165  -0.01277
  33        2PX        -0.00009  -0.00008  -0.00011   0.00003  -0.00005
  34        2PY         0.00001  -0.00003  -0.00007   0.00010  -0.00006
  35        2PZ         0.00000   0.00000   0.00000   0.00000   0.00000
  36        3S          0.00280  -0.00122   0.00016  -0.01554   0.00659
  37        3PX         0.00266   0.00013   0.00273  -0.00228   0.00026
  38        3PY        -0.00015  -0.00019   0.00136   0.00014   0.00079
  39        3PZ         0.00000   0.00000   0.00000   0.00000   0.00000
  40        4XX        -0.00002  -0.00023  -0.00100  -0.00110   0.00072
  41        4YY         0.00002  -0.00030  -0.00105  -0.00094   0.00059
  42        4ZZ        -0.00008  -0.00027  -0.00110  -0.00171   0.00103
  43        4XY         0.00000  -0.00001  -0.00007   0.00004  -0.00005
  44        4XZ         0.00000   0.00000   0.00000   0.00000   0.00000
  45        4YZ         0.00000   0.00000   0.00000   0.00000   0.00000
  46 4   C  1S          0.00016   0.00506   0.03485   0.12788   0.04731
  47        2S          0.00004   0.00003   0.00093   0.00327   0.00114
  48        2PX        -0.00002  -0.00001   0.00004  -0.00004  -0.00018
  49        2PY        -0.00002  -0.00006  -0.00007  -0.00010   0.00006
  50        2PZ         0.00000   0.00000   0.00000   0.00000   0.00000
  51        3S         -0.00405   0.00063  -0.00085   0.00733   0.00217
  52        3PX        -0.00143   0.00032  -0.00122   0.00134   0.00177
  53        3PY        -0.00157   0.00043  -0.00034   0.00295   0.00015
  54        3PZ         0.00000   0.00000   0.00000   0.00000   0.00000
  55        4XX         0.00013  -0.00004  -0.00016  -0.00073  -0.00032
  56        4YY         0.00003  -0.00002  -0.00015  -0.00078  -0.00010
  57        4ZZ         0.00003  -0.00006  -0.00010  -0.00048  -0.00018
  58        4XY         0.00003   0.00000   0.00004   0.00011  -0.00002
  59        4XZ         0.00000   0.00000   0.00000   0.00000   0.00000
  60        4YZ         0.00000   0.00000   0.00000   0.00000   0.00000
  61 5   C  1S          0.01372  -0.00518   0.01270   0.48841   0.86097
  62        2S          0.00000  -0.00022   0.00027   0.01373   0.02413
  63        2PX        -0.00003   0.00001   0.00000  -0.00001  -0.00004
  64        2PY        -0.00013  -0.00004  -0.00002   0.00029   0.00047
  65        2PZ         0.00000   0.00000   0.00000   0.00000   0.00000
  66        3S          0.00755  -0.00141   0.00151  -0.00953  -0.01195
  67        3PX        -0.00110   0.00013  -0.00083   0.00118   0.00053
  68        3PY         0.00377  -0.00066   0.00076  -0.00293  -0.00209
  69        3PZ         0.00000   0.00000   0.00000   0.00000   0.00000
  70        4XX        -0.00042   0.00007  -0.00003  -0.00071  -0.00141
  71        4YY        -0.00030   0.00012  -0.00008  -0.00081  -0.00152
  72        4ZZ        -0.00021   0.00000  -0.00007  -0.00114  -0.00209
  73        4XY        -0.00013   0.00002  -0.00003   0.00002   0.00010
  74        4XZ         0.00000   0.00000   0.00000   0.00000   0.00000
  75        4YZ         0.00000   0.00000   0.00000   0.00000   0.00000
  76 6   C  1S          0.99546  -0.01384   0.00656  -0.00829  -0.01184
  77        2S          0.02748  -0.00061   0.00021  -0.00046  -0.00045
  78        2PX         0.00081   0.00011  -0.00002   0.00010   0.00010
  79        2PY        -0.00005  -0.00014   0.00010   0.00004   0.00014
  80        2PZ         0.00000   0.00000   0.00000   0.00000   0.00000
  81        3S         -0.01330   0.00553  -0.00464   0.00659   0.00439
  82        3PX         0.00579  -0.00168   0.00130  -0.00275  -0.00119
  83        3PY        -0.00043   0.00122  -0.00164  -0.00007  -0.00145
  84        3PZ         0.00000   0.00000   0.00000   0.00000   0.00000
  85        4XX        -0.00148  -0.00024   0.00020  -0.00024  -0.00025
  86        4YY        -0.00145  -0.00044   0.00031  -0.00035  -0.00041
  87        4ZZ        -0.00228  -0.00010   0.00005  -0.00012  -0.00007
  88        4XY         0.00000   0.00005  -0.00007  -0.00003  -0.00012
  89        4XZ         0.00000   0.00000   0.00000   0.00000   0.00000
  90        4YZ         0.00000   0.00000   0.00000   0.00000   0.00000
  91 7   H  1S          0.00007  -0.00019   0.00008  -0.00006   0.00003
  92        2S          0.00080   0.00109  -0.00021  -0.00029  -0.00002
  93 8   H  1S         -0.00005  -0.00009  -0.00020   0.00007   0.00001
  94        2S         -0.00034   0.00090   0.00077  -0.00021   0.00042
  95 9   C  1S         -0.00001  -0.00052  -0.00209  -0.00389   0.00227
  96        2S         -0.00003  -0.00010  -0.00010   0.00000  -0.00005
  97        2PX         0.00003   0.00000  -0.00003  -0.00009   0.00005
  98        2PY        -0.00001  -0.00001   0.00000   0.00005  -0.00001
  99        2PZ         0.00000   0.00000   0.00000   0.00000   0.00000
 100        3S          0.00116   0.00055   0.00200   0.00261  -0.00152
 101        3PX         0.00044   0.00042   0.00063   0.00093  -0.00052
 102        3PY        -0.00014   0.00037  -0.00023  -0.00070   0.00000
 103        3PZ         0.00000   0.00000   0.00000   0.00000   0.00000
 104        4XX         0.00002  -0.00003  -0.00020  -0.00055   0.00032
 105        4YY         0.00002  -0.00003  -0.00007  -0.00018   0.00010
 106        4ZZ        -0.00001  -0.00004  -0.00006  -0.00010   0.00004
 107        4XY         0.00000   0.00003   0.00002  -0.00002  -0.00002
 108        4XZ         0.00000   0.00000   0.00000   0.00000   0.00000
 109        4YZ         0.00000   0.00000   0.00000   0.00000   0.00000
 110 10  H  1S         -0.00005   0.00003  -0.00006  -0.00003   0.00001
 111        2S         -0.00035   0.00019  -0.00026   0.00060   0.00029
 112 11  H  1S          0.00006   0.00001   0.00002  -0.00016  -0.00015
 113        2S          0.00080  -0.00007   0.00029   0.00020   0.00113
 114 12  N  1S         -0.00013   0.00001  -0.00002   0.00000   0.00001
 115        2S          0.00061  -0.00006  -0.00001  -0.00006  -0.00004
 116        2PX        -0.00020   0.00000   0.00000   0.00000   0.00001
 117        2PY         0.00002  -0.00003   0.00000   0.00001   0.00002
 118        2PZ         0.00000   0.00000   0.00000   0.00000   0.00000
 119        3S         -0.00107  -0.00025   0.00022   0.00022  -0.00046
 120        3PX         0.00298  -0.00003  -0.00018  -0.00006   0.00006
 121        3PY        -0.00024   0.00010   0.00042  -0.00012   0.00007
 122        3PZ         0.00000   0.00000   0.00000   0.00000   0.00000
 123        4XX        -0.00079   0.00008  -0.00006   0.00006   0.00009
 124        4YY        -0.00016   0.00002  -0.00005   0.00002   0.00001
 125        4ZZ         0.00021  -0.00001  -0.00002  -0.00001   0.00000
 126        4XY         0.00005  -0.00005   0.00002   0.00002   0.00003
 127        4XZ         0.00000   0.00000   0.00000   0.00000   0.00000
 128        4YZ         0.00000   0.00000   0.00000   0.00000   0.00000
 129 13  O  1S          0.00004  -0.00001   0.00000   0.00000  -0.00001
 130        2S          0.00008  -0.00006   0.00000  -0.00002  -0.00005
 131        2PX         0.00005   0.00003   0.00000   0.00000   0.00001
 132        2PY        -0.00007   0.00001   0.00000   0.00001   0.00000
 133        2PZ         0.00000   0.00000   0.00000   0.00000   0.00000
 134        3S         -0.00100   0.00021  -0.00012   0.00015   0.00027
 135        3PX        -0.00046  -0.00009   0.00004  -0.00006  -0.00012
 136        3PY         0.00050  -0.00009   0.00008  -0.00003  -0.00002
 137        3PZ         0.00000   0.00000   0.00000   0.00000   0.00000
 138        4XX         0.00030  -0.00001  -0.00001   0.00000  -0.00001
 139        4YY         0.00003  -0.00004   0.00001  -0.00003  -0.00006
 140        4ZZ         0.00006  -0.00006  -0.00002  -0.00001  -0.00004
 141        4XY         0.00012   0.00001  -0.00002   0.00001   0.00001
 142        4XZ         0.00000   0.00000   0.00000   0.00000   0.00000
 143        4YZ         0.00000   0.00000   0.00000   0.00000   0.00000
 144 14  O  1S          0.00004  -0.00001   0.00000   0.00000  -0.00001
 145        2S          0.00008  -0.00006  -0.00001  -0.00003  -0.00005
 146        2PX         0.00006   0.00001   0.00000   0.00001   0.00002
 147        2PY         0.00006   0.00000   0.00000  -0.00001  -0.00001
 148        2PZ         0.00000   0.00000   0.00000   0.00000   0.00000
 149        3S         -0.00102   0.00036   0.00020   0.00004   0.00024
 150        3PX        -0.00052  -0.00012   0.00002  -0.00004  -0.00007
 151        3PY        -0.00043   0.00007   0.00010   0.00002   0.00013
 152        3PZ         0.00000   0.00000   0.00000   0.00000   0.00000
 153        4XX         0.00027  -0.00002  -0.00002   0.00000  -0.00001
 154        4YY         0.00007  -0.00006   0.00002  -0.00003  -0.00003
 155        4ZZ         0.00006  -0.00004  -0.00001  -0.00002  -0.00004
 156        4XY        -0.00016  -0.00002   0.00000  -0.00001  -0.00002
 157        4XZ         0.00000   0.00000   0.00000   0.00000   0.00000
 158        4YZ         0.00000   0.00000   0.00000   0.00000   0.00000
 159 15  O  1S          0.00000  -0.00001   0.00000   0.00003  -0.00002
 160        2S          0.00002  -0.00007  -0.00001   0.00009  -0.00005
 161        2PX         0.00000   0.00000  -0.00001   0.00000  -0.00001
 162        2PY        -0.00001  -0.00001   0.00001   0.00004  -0.00001
 163        2PZ         0.00000   0.00000   0.00000   0.00000   0.00000
 164        3S         -0.00018   0.00040  -0.00018  -0.00087   0.00037
 165        3PX        -0.00009   0.00005  -0.00001  -0.00025   0.00015
 166        3PY        -0.00002   0.00007  -0.00003  -0.00003   0.00000
 167        3PZ         0.00000   0.00000   0.00000   0.00000   0.00000
 168        4XX         0.00001  -0.00003   0.00005   0.00010  -0.00006
 169        4YY         0.00001  -0.00004   0.00002   0.00017  -0.00009
 170        4ZZ         0.00001  -0.00005  -0.00003   0.00002  -0.00004
 171        4XY        -0.00001   0.00000   0.00001   0.00001  -0.00001
 172        4XZ         0.00000   0.00000   0.00000   0.00000   0.00000
 173        4YZ         0.00000   0.00000   0.00000   0.00000   0.00000
 174 16  H  1S         -0.00001  -0.00006  -0.00004  -0.00003   0.00004
 175        2S          0.00001  -0.00012  -0.00010   0.00014   0.00008
                          11        12        13        14        15
                           O         O         O         O         O
     Eigenvalues --   -11.28228  -1.61696  -1.41769  -1.41042  -1.21525
   1 1   C  1S          0.00036  -0.00425  -0.00091  -0.00432  -0.09181
   2        2S         -0.00010   0.01056   0.00318   0.00832   0.17633
   3        2PX         0.00001   0.00597  -0.00077   0.00547  -0.02386
   4        2PY         0.00004  -0.00516  -0.00046  -0.00229  -0.05814
   5        2PZ         0.00000   0.00000   0.00000   0.00000   0.00001
   6        3S          0.00220  -0.01290  -0.02312  -0.00452   0.09853
   7        3PX        -0.00125   0.00818   0.01286  -0.01401   0.00325
   8        3PY        -0.00104   0.01399   0.00347   0.00757   0.00263
   9        3PZ         0.00000   0.00000   0.00000   0.00000   0.00000
  10        4XX        -0.00004   0.00154  -0.00036   0.00063   0.00685
  11        4YY        -0.00004   0.00005   0.00009   0.00074   0.00718
  12        4ZZ        -0.00006   0.00048   0.00010  -0.00037  -0.00823
  13        4XY         0.00001  -0.00156   0.00001   0.00003  -0.00198
  14        4XZ         0.00000   0.00000   0.00000   0.00000   0.00000
  15        4YZ         0.00000   0.00000   0.00000   0.00000   0.00000
  16 2   C  1S          0.00804  -0.00028  -0.00400  -0.00049  -0.08299
  17        2S          0.00024   0.00235   0.00767   0.00144   0.15799
  18        2PX         0.00000   0.00125  -0.00454   0.00080   0.02669
  19        2PY         0.00000  -0.00081  -0.00375  -0.00004  -0.04888
  20        2PZ         0.00000   0.00000   0.00000   0.00000   0.00000
  21        3S         -0.00362   0.00461   0.02749  -0.00505   0.10199
  22        3PX        -0.00087  -0.00138   0.01910  -0.00887   0.00169
  23        3PY         0.00167   0.00071  -0.01058  -0.00317  -0.00628
  24        3PZ         0.00000   0.00000   0.00000   0.00000   0.00000
  25        4XX         0.00009  -0.00021   0.00071   0.00001   0.00791
  26        4YY         0.00014   0.00018   0.00014   0.00009   0.00525
  27        4ZZ         0.00001   0.00048  -0.00023   0.00009  -0.00755
  28        4XY         0.00004  -0.00003   0.00025   0.00009   0.00080
  29        4XZ         0.00000   0.00000   0.00000   0.00000   0.00000
  30        4YZ         0.00000   0.00000   0.00000   0.00000   0.00000
  31 3   C  1S         -0.09389  -0.00015  -0.01976  -0.00004  -0.08233
  32        2S         -0.00284   0.00080   0.03703   0.00008   0.15779
  33        2PX        -0.00013   0.00098  -0.02563   0.00001   0.04681
  34        2PY         0.00014  -0.00007  -0.00461   0.00045   0.00027
  35        2PZ         0.00000   0.00000  -0.00001   0.00000  -0.00002
  36        3S          0.00832   0.00148   0.01750  -0.00005   0.09127
  37        3PX         0.00360  -0.00630  -0.02253  -0.00078   0.00812
  38        3PY        -0.00180   0.00014  -0.01110  -0.00698   0.00036
  39        3PZ         0.00000   0.00000  -0.00001   0.00000  -0.00001
  40        4XX        -0.00019   0.00033   0.00833   0.00000   0.00398
  41        4YY        -0.00041  -0.00009  -0.00064   0.00000   0.00754
  42        4ZZ         0.00007   0.00019  -0.00188   0.00000  -0.00701
  43        4XY         0.00007  -0.00002   0.00065  -0.00005   0.00016
  44        4XZ         0.00000   0.00000   0.00000   0.00000   0.00000
  45        4YZ         0.00000   0.00000   0.00000   0.00000   0.00000
  46 4   C  1S          0.98568  -0.00028  -0.00694   0.00044  -0.07860
  47        2S          0.02768   0.00228   0.01260  -0.00136   0.14967
  48        2PX         0.00028   0.00135  -0.00617  -0.00076   0.03418
  49        2PY         0.00040   0.00061   0.00571   0.00009   0.04409
  50        2PZ         0.00000   0.00000   0.00000   0.00000   0.00000
  51        3S         -0.01736   0.00467   0.00827   0.00531   0.09809
  52        3PX        -0.00238  -0.00126   0.00462   0.00824   0.00722
  53        3PY        -0.00366  -0.00059   0.00351  -0.00418   0.00610
  54        3PZ         0.00000   0.00000   0.00000   0.00000   0.00000
  55        4XX        -0.00143  -0.00021   0.00096   0.00001   0.00723
  56        4YY        -0.00161   0.00015   0.00090  -0.00010   0.00522
  57        4ZZ        -0.00230   0.00047  -0.00074  -0.00010  -0.00719
  58        4XY        -0.00016   0.00011  -0.00062   0.00007  -0.00099
  59        4XZ         0.00000   0.00000   0.00000   0.00000   0.00000
  60        4YZ         0.00000   0.00000   0.00000   0.00000   0.00000
  61 5   C  1S         -0.10572  -0.00417  -0.00145   0.00418  -0.08911
  62        2S         -0.00329   0.01041   0.00276  -0.00808   0.17137
  63        2PX         0.00022   0.00660  -0.00147  -0.00565  -0.01334
  64        2PY        -0.00012   0.00416   0.00062  -0.00137   0.06043
  65        2PZ         0.00000   0.00000   0.00000   0.00000   0.00000
  66        3S          0.00949  -0.01292  -0.00444   0.00461   0.09126
  67        3PX        -0.00237   0.00626   0.00270   0.01492   0.00541
  68        3PY         0.00281  -0.01501  -0.00199   0.00538  -0.00297
  69        3PZ         0.00000   0.00000   0.00000   0.00000   0.00000
  70        4XX        -0.00038   0.00193   0.00013  -0.00063   0.00698
  71        4YY        -0.00012  -0.00030  -0.00006  -0.00072   0.00662
  72        4ZZ         0.00009   0.00048  -0.00017   0.00035  -0.00796
  73        4XY        -0.00003   0.00123  -0.00003   0.00001   0.00204
  74        4XZ         0.00000   0.00000   0.00000   0.00000   0.00000
  75        4YZ         0.00000   0.00000   0.00000   0.00000   0.00000
  76 6   C  1S          0.00138  -0.02515  -0.00087  -0.00011  -0.11159
  77        2S          0.00006   0.04908   0.00140   0.00019   0.21826
  78        2PX        -0.00001   0.04207  -0.00062   0.00154  -0.03615
  79        2PY        -0.00004  -0.00314   0.00005   0.01990   0.00434
  80        2PZ         0.00000   0.00000   0.00000   0.00000   0.00001
  81        3S         -0.00387  -0.01135   0.00399   0.00022   0.12648
  82        3PX         0.00165  -0.06454  -0.00773   0.00225  -0.03489
  83        3PY         0.00106   0.00507   0.00137   0.02813   0.00297
  84        3PZ         0.00000   0.00000   0.00000   0.00000   0.00000
  85        4XX         0.00014   0.01066  -0.00016   0.00069   0.00600
  86        4YY         0.00014  -0.00196   0.00013  -0.00067   0.00943
  87        4ZZ         0.00004  -0.00205  -0.00014  -0.00001  -0.00984
  88        4XY         0.00005  -0.00112  -0.00003   0.00514   0.00018
  89        4XZ         0.00000   0.00000   0.00000   0.00000   0.00000
  90        4YZ         0.00000   0.00000   0.00000   0.00000   0.00000
  91 7   H  1S          0.00006   0.00222   0.00022   0.00482   0.03299
  92        2S          0.00040  -0.00480  -0.00203   0.00174  -0.00307
  93 8   H  1S         -0.00003  -0.00003   0.00267   0.00033   0.03024
  94        2S         -0.00034  -0.00196   0.00495  -0.00016   0.00147
  95 9   C  1S          0.00047   0.00010  -0.11437  -0.00015  -0.01141
  96        2S         -0.00014   0.00072   0.21834   0.00032   0.02362
  97        2PX         0.00002   0.00002  -0.10478  -0.00015   0.04539
  98        2PY         0.00002  -0.00002  -0.13968  -0.00007   0.01489
  99        2PZ         0.00000   0.00000  -0.00009   0.00000   0.00001
 100        3S          0.00060  -0.00618   0.05419   0.00048   0.01776
 101        3PX         0.00043  -0.00371   0.00585  -0.00043   0.00692
 102        3PY        -0.00002   0.00108   0.03198   0.00017   0.00045
 103        3PZ         0.00000   0.00000   0.00001   0.00000   0.00000
 104        4XX         0.00015  -0.00012   0.00166   0.00004   0.00535
 105        4YY         0.00007   0.00006   0.01404   0.00003  -0.00177
 106        4ZZ        -0.00002   0.00024  -0.01708  -0.00003  -0.00090
 107        4XY        -0.00002   0.00002   0.02632   0.00016  -0.00331
 108        4XZ         0.00000   0.00000   0.00002   0.00000   0.00000
 109        4YZ         0.00000   0.00000   0.00002   0.00000   0.00000
 110 10  H  1S         -0.00022  -0.00002   0.00439  -0.00029   0.02717
 111        2S          0.00092  -0.00204   0.00463   0.00030   0.00078
 112 11  H  1S          0.00004   0.00217   0.00030  -0.00473   0.03176
 113        2S          0.00035  -0.00486  -0.00072  -0.00169  -0.00323
 114 12  N  1S         -0.00001  -0.15866  -0.00001  -0.00009  -0.01481
 115        2S         -0.00001   0.34981  -0.00048   0.00022   0.03085
 116        2PX         0.00000   0.08384  -0.00039   0.02285  -0.10877
 117        2PY         0.00001  -0.00654  -0.00029   0.30490   0.00797
 118        2PZ         0.00000   0.00001   0.00000  -0.00004   0.00000
 119        3S         -0.00013   0.20353   0.00507   0.00002   0.06515
 120        3PX        -0.00017  -0.05517  -0.00184   0.00105  -0.04755
 121        3PY        -0.00045   0.00416  -0.00178   0.01388   0.00397
 122        3PZ         0.00000   0.00000   0.00000   0.00000   0.00000
 123        4XX        -0.00003  -0.00047   0.00001   0.00417   0.00921
 124        4YY        -0.00004   0.02519  -0.00004  -0.00414  -0.00691
 125        4ZZ        -0.00002  -0.01757  -0.00014  -0.00001  -0.00157
 126        4XY         0.00000   0.00221  -0.00014   0.03175  -0.00145
 127        4XZ         0.00000   0.00000   0.00000   0.00000   0.00000
 128        4YZ         0.00000  -0.00001   0.00000   0.00000   0.00000
 129 13  O  1S         -0.00001  -0.10855   0.00035  -0.14387   0.02449
 130        2S         -0.00003   0.24280  -0.00057   0.32123  -0.05735
 131        2PX         0.00000  -0.05518   0.00000  -0.06502  -0.01407
 132        2PY         0.00000  -0.09718   0.00023  -0.06850   0.01602
 133        2PZ         0.00000   0.00001   0.00000   0.00001   0.00000
 134        3S          0.00034   0.19052  -0.00064   0.30786  -0.05652
 135        3PX        -0.00005  -0.01958   0.00044  -0.03952  -0.00008
 136        3PY        -0.00013  -0.04358  -0.00017  -0.03913   0.00654
 137        3PZ         0.00000   0.00000   0.00000   0.00000   0.00000
 138        4XX        -0.00002   0.00127   0.00004   0.00713   0.00100
 139        4YY         0.00000   0.01855   0.00010   0.00747  -0.00378
 140        4ZZ        -0.00002  -0.00287   0.00016  -0.00435  -0.00061
 141        4XY         0.00001   0.01272  -0.00002   0.01252  -0.00006
 142        4XZ         0.00000   0.00000   0.00000   0.00000   0.00000
 143        4YZ         0.00000   0.00000   0.00000   0.00000   0.00000
 144 14  O  1S         -0.00001  -0.10875  -0.00001   0.14374   0.02417
 145        2S         -0.00002   0.24330   0.00027  -0.32105  -0.05663
 146        2PX         0.00001  -0.04010  -0.00007   0.05399  -0.01630
 147        2PY         0.00000   0.10455  -0.00004  -0.07742  -0.01360
 148        2PZ         0.00000  -0.00002   0.00000   0.00001   0.00000
 149        3S         -0.00005   0.19085  -0.00170  -0.30740  -0.05533
 150        3PX        -0.00001  -0.01284   0.00051   0.03310  -0.00109
 151        3PY        -0.00005   0.04614  -0.00071  -0.04460  -0.00616
 152        3PZ         0.00000  -0.00001   0.00000   0.00001   0.00000
 153        4XX        -0.00001  -0.00161   0.00008  -0.00394   0.00091
 154        4YY        -0.00001   0.02145  -0.00001  -0.01068  -0.00364
 155        4ZZ        -0.00004  -0.00288   0.00009   0.00432  -0.00060
 156        4XY         0.00001  -0.00923   0.00010   0.01190  -0.00080
 157        4XZ         0.00000   0.00000   0.00000   0.00000   0.00000
 158        4YZ         0.00000   0.00000   0.00000   0.00000   0.00000
 159 15  O  1S          0.00000  -0.00001  -0.19523  -0.00025   0.01797
 160        2S         -0.00002   0.00001   0.43066   0.00063  -0.03998
 161        2PX        -0.00001  -0.00002   0.08855   0.00008   0.00138
 162        2PY        -0.00002   0.00005   0.10646   0.00016  -0.00761
 163        2PZ         0.00000   0.00000   0.00007   0.00000   0.00000
 164        3S          0.00010   0.00045   0.39634   0.00002  -0.04121
 165        3PX        -0.00004   0.00062   0.03803  -0.00001  -0.00066
 166        3PY         0.00008  -0.00020   0.03994  -0.00027  -0.00259
 167        3PZ         0.00000   0.00000   0.00003   0.00000   0.00000
 168        4XX        -0.00003   0.00004   0.00604   0.00002   0.00000
 169        4YY        -0.00002  -0.00005   0.00944  -0.00001  -0.00109
 170        4ZZ        -0.00002   0.00004  -0.00276   0.00002   0.00029
 171        4XY         0.00000   0.00004   0.01229  -0.00003  -0.00051
 172        4XZ         0.00000   0.00000   0.00001   0.00000   0.00000
 173        4YZ         0.00000   0.00000   0.00001   0.00000   0.00000
 174 16  H  1S          0.00000   0.00010   0.02698   0.00010   0.00644
 175        2S          0.00014  -0.00057  -0.01205  -0.00039   0.00144
                          16        17        18        19        20
                           O         O         O         O         O
     Eigenvalues --    -1.11497  -1.06781  -0.99332  -0.88909  -0.87466
   1 1   C  1S          0.02447   0.11180   0.07542  -0.04665   0.06260
   2        2S         -0.04885  -0.21699  -0.14609   0.09522  -0.12496
   3        2PX        -0.07557   0.05318   0.04824   0.03534  -0.16425
   4        2PY         0.05006  -0.00339   0.00274   0.01587   0.07999
   5        2PZ         0.00001  -0.00001  -0.00001   0.00000   0.00002
   6        3S         -0.02767  -0.16395  -0.12095   0.06596  -0.09787
   7        3PX        -0.01532   0.00831   0.00523   0.02212  -0.04870
   8        3PY        -0.00276  -0.00925   0.00246   0.03054  -0.00162
   9        3PZ         0.00000   0.00000   0.00000   0.00000   0.00001
  10        4XX         0.00488  -0.01278  -0.00469   0.00366   0.00877
  11        4YY        -0.00832  -0.00288  -0.00499   0.00231  -0.01600
  12        4ZZ         0.00173   0.00900   0.00640  -0.00320   0.00478
  13        4XY         0.00483  -0.00092  -0.00328   0.00132   0.00031
  14        4XZ         0.00000   0.00000   0.00000   0.00000   0.00000
  15        4YZ         0.00000   0.00000   0.00000   0.00000   0.00000
  16 2   C  1S         -0.07412   0.10398   0.01654   0.03001  -0.10621
  17        2S          0.14148  -0.20130  -0.03183  -0.05942   0.21334
  18        2PX        -0.05112  -0.06332  -0.12148   0.08426  -0.04145
  19        2PY        -0.05142  -0.00535  -0.03251  -0.01132   0.02114
  20        2PZ         0.00002   0.00000   0.00002  -0.00002   0.00003
  21        3S          0.10080  -0.15035  -0.01672  -0.05396   0.16594
  22        3PX        -0.01058  -0.00271  -0.02581   0.03124  -0.02627
  23        3PY        -0.00354  -0.00526  -0.01128  -0.01568   0.04925
  24        3PZ         0.00000   0.00000   0.00001  -0.00001   0.00001
  25        4XX         0.00159  -0.01235  -0.00650  -0.00051  -0.00046
  26        4YY         0.00933  -0.00217   0.00508  -0.00386   0.01226
  27        4ZZ        -0.00649   0.00828   0.00162   0.00242  -0.00735
  28        4XY         0.00549   0.00296   0.00682  -0.00054  -0.00246
  29        4XZ         0.00000   0.00000   0.00000   0.00000   0.00000
  30        4YZ         0.00000   0.00000   0.00000   0.00000   0.00000
  31 3   C  1S         -0.12011  -0.00608  -0.08482  -0.00830   0.01702
  32        2S          0.23205   0.01160   0.16877   0.01481  -0.03594
  33        2PX         0.01462  -0.00270  -0.08488   0.09071   0.14686
  34        2PY         0.01025  -0.11444   0.01848  -0.17642   0.10513
  35        2PZ        -0.00003   0.00000  -0.00002   0.00000   0.00000
  36        3S          0.16678   0.01289   0.13743   0.03444  -0.02316
  37        3PX         0.00384  -0.00068  -0.04237   0.02664   0.05828
  38        3PY        -0.00066  -0.02061  -0.00348  -0.03961   0.05065
  39        3PZ        -0.00001   0.00000  -0.00001   0.00000   0.00000
  40        4XX         0.00597  -0.00140   0.00815  -0.00840  -0.00997
  41        4YY         0.00911   0.00213   0.00140   0.00791   0.00727
  42        4ZZ        -0.00944  -0.00050  -0.00583  -0.00035   0.00145
  43        4XY         0.00025  -0.01120  -0.00151  -0.00600   0.01022
  44        4XZ         0.00000   0.00000   0.00000   0.00000   0.00000
  45        4YZ         0.00000   0.00000   0.00000   0.00001   0.00000
  46 4   C  1S         -0.06140  -0.11398   0.01770  -0.10073   0.00452
  47        2S          0.11719   0.22062  -0.03384   0.20160  -0.00910
  48        2PX        -0.04144   0.06305  -0.09607  -0.09790   0.07255
  49        2PY         0.05718  -0.00486   0.04377   0.02597  -0.02068
  50        2PZ         0.00001   0.00001   0.00001   0.00003  -0.00001
  51        3S          0.08341   0.16423  -0.02444   0.17206   0.00028
  52        3PX        -0.00158   0.00721  -0.01223  -0.03759   0.01042
  53        3PY         0.00329  -0.00542   0.00763  -0.02440   0.01004
  54        3PZ         0.00000   0.00000   0.00000   0.00001   0.00000
  55        4XX        -0.00073   0.01333  -0.00739  -0.00138   0.00085
  56        4YY         0.00984   0.00250   0.00552   0.01379  -0.00174
  57        4ZZ        -0.00549  -0.00914   0.00170  -0.00723   0.00051
  58        4XY        -0.00369   0.00096  -0.00413   0.00199   0.00153
  59        4XZ         0.00000   0.00000   0.00000   0.00000   0.00000
  60        4YZ         0.00000   0.00000   0.00000   0.00000   0.00000
  61 5   C  1S          0.03108  -0.11428   0.06266   0.08465  -0.03441
  62        2S         -0.06129   0.22185  -0.12082  -0.16824   0.07096
  63        2PX        -0.07576  -0.06398   0.04757  -0.14438  -0.00792
  64        2PY        -0.03782   0.00443  -0.00996  -0.03044  -0.04210
  65        2PZ         0.00001   0.00000   0.00000   0.00002   0.00000
  66        3S         -0.04109   0.16242  -0.10299  -0.14573   0.05282
  67        3PX        -0.00961  -0.00772   0.00906  -0.03886   0.00073
  68        3PY         0.00571  -0.00686  -0.00326   0.01713  -0.04120
  69        3PZ         0.00000   0.00000   0.00000   0.00001   0.00000
  70        4XX         0.00207   0.01285  -0.00303   0.00425   0.00529
  71        4YY        -0.00677   0.00294  -0.00490  -0.01479  -0.00077
  72        4ZZ         0.00237  -0.00916   0.00542   0.00654  -0.00219
  73        4XY        -0.00662  -0.00335   0.00292  -0.00304  -0.00285
  74        4XZ         0.00000   0.00000   0.00000   0.00000   0.00000
  75        4YZ         0.00000   0.00000   0.00000   0.00000   0.00000
  76 6   C  1S          0.11097   0.00378  -0.01098   0.03282   0.05010
  77        2S         -0.22148  -0.00763   0.02589  -0.06634  -0.10159
  78        2PX        -0.05696  -0.01638   0.18362   0.08726   0.08008
  79        2PY         0.00710  -0.13176  -0.02411   0.16686  -0.14971
  80        2PZ         0.00000   0.00001  -0.00001  -0.00001   0.00000
  81        3S         -0.13879  -0.00523  -0.01254  -0.07287  -0.10803
  82        3PX         0.01747  -0.00341   0.00816  -0.00730  -0.02003
[...]
    12  N   -0.014842
    13  O   -0.127183
    14  O   -0.120737
    15  O   -0.376530
    16  H    0.147960
 Sum of Mulliken atomic charges =   0.00000
 Mulliken charges with hydrogens summed into heavy atoms:
              1
     1  C    0.066721
     2  C   -0.788471
     3  C    0.502913
     4  C    0.452141
     5  C   -0.112136
     6  C    0.070046
     9  C    0.448078
    12  N   -0.014842
    13  O   -0.127183
    14  O   -0.120737
    15  O   -0.376530
 Sum of Mulliken charges with hydrogens summed into heavy atoms =   0.00000
 Electronic spatial extent (au):  <R**2>=           2006.8593
 Charge=              0.0000 electrons
 Dipole moment (field-independent basis, Debye):
    X=             -2.2212    Y=              2.3387    Z=              0.0000  Tot=              3.2254
 Quadrupole moment (field-independent basis, Debye-Ang):
   XX=            -90.2303   YY=            -57.1394   ZZ=            -63.7134
   XY=             -7.1237   XZ=              0.0000   YZ=              0.0000
 Traceless Quadrupole moment (field-independent basis, Debye-Ang):
   XX=            -19.8693   YY=             13.2216   ZZ=              6.6476
   XY=             -7.1237   XZ=              0.0000   YZ=              0.0000
 Octapole moment (field-independent basis, Debye-Ang**2):
  XXX=             14.3403  YYY=              2.0473  ZZZ=              0.0000  XYY=             -8.7397
  XXY=             32.7654  XXZ=              0.0000  XZZ=              6.6212  YZZ=             -1.7533
  YYZ=              0.0000  XYZ=             -0.0001
 Hexadecapole moment (field-independent basis, Debye-Ang**3):
 XXXX=          -2550.1655 YYYY=           -378.5691 ZZZZ=            -65.9451 XXXY=           -113.8257
 XXXZ=              0.0003 YYYX=              2.7565 YYYZ=             -0.0001 ZZZX=             -0.0001
 ZZZY=              0.0000 XXYY=           -422.6608 XXZZ=           -338.0550 YYZZ=            -87.9379
 XXYZ=             -0.0001 YYXZ=              0.0000 ZZXY=              1.1948
 N-N= 5.534301991443D+02 E-N=-2.389282521975D+03  KE= 5.460361556178D+02

 Test job not archived.
 1\1\GINC-PALLAS\SP\RMP2\GTMP2large\C7H5N1O3\JMSOLANO\11-Mar-2020\0\\#N
  Geom=AllCheck Guess=TCheck SCRF=Check Test MP2=FrzG3/GTMP2Large\\4NBA
 La_opt, G3MP2, qcisd test\\0,1\C,0,-0.0059027996,0.0001005078,-0.00496
 88343\C,0,-0.006651739,0.0000036588,1.3864125059\C,0,1.1993815842,-0.0
 002660206,2.0948563468\C,0,2.4207184071,-0.0004375722,1.4089086602\C,0
 ,2.4417515924,-0.0003448358,0.020424889\C,0,1.223449867,-0.000073481,-
 0.6578073021\H,0,-0.9239424512,0.0003077825,-0.5814090255\H,0,-0.95229
 13728,0.0001359447,1.9256080834\C,0,1.1885106272,-0.0003661088,3.57556
 50869\H,0,3.342771098,-0.0006455999,1.9838635302\H,0,3.3700942792,-0.0
 004735868,-0.5394771877\N,0,1.236726583,0.0000239862,-2.1278795274\O,0
 ,0.141309852,0.0002656613,-2.712095221\O,0,2.3427899467,-0.0001456669,
 -2.6916349517\O,0,2.2026907391,-0.0005965102,4.2641954922\H,0,0.183593
 3334,-0.0002113803,4.0446287348\\Version=EM64L-G09RevB.01\State=1-A\HF
 =-547.068387\MP2=-549.0628341\RMSD=9.490e-09\PG=C01 [X(C7H5N1O3)]\\@


 WHEN ALL ELSE FAILS, TRY THE BOSS'S SUGGESTION.

 Temperature=              298.150000 Pressure=                      1.000000
 E(ZPE)=                     0.108939 E(Thermal)=                    0.117977
 E(QCISD(T))=             -548.591394 E(Empiric)=                   -0.259812
 DE(MP2)=                   -0.568335
 G3MP2(0 K)=              -549.310602 G3MP2 Energy=               -549.301564
 G3MP2 Enthalpy=          -549.300620 G3MP2 Free Energy=          -549.345864

 Test job not archived.
 1\1\GINC-PALLAS\Mixed\G3MP2\G3MP2\C7H5N1O3\JMSOLANO\11-Mar-2020\0\\#G3
 MP2 QCISD=(Maxcyc=400) opt=(MaxCycles=400) scf=(MaxCycle=600) test GFI
 nput IOP(6/7=3)\\4NBALa_opt, G3MP2, qcisd test\\0,1\C,0,-0.0059027996,
 0.0001005078,-0.0049688343\C,0,-0.006651739,0.0000036588,1.3864125059\
 C,0,1.1993815842,-0.0002660206,2.0948563468\C,0,2.4207184071,-0.000437
 5722,1.4089086602\C,0,2.4417515924,-0.0003448358,0.020424889\C,0,1.223
 449867,-0.000073481,-0.6578073021\H,0,-0.9239424512,0.0003077825,-0.58
 14090255\H,0,-0.9522913728,0.0001359447,1.9256080834\C,0,1.1885106272,
 -0.0003661088,3.5755650869\H,0,3.342771098,-0.0006455999,1.9838635302\
 H,0,3.3700942792,-0.0004735868,-0.5394771877\N,0,1.236726583,0.0000239
 862,-2.1278795274\O,0,0.141309852,0.0002656613,-2.712095221\O,0,2.3427
 899467,-0.0001456669,-2.6916349517\O,0,2.2026907391,-0.0005965102,4.26
 41954922\H,0,0.1835933334,-0.0002113803,4.0446287348\\Version=EM64L-G0
 9RevB.01\State=1-A\MP2/G3Bas1=-548.4944988\QCISD(T)/G3Bas1=-548.591393
 9\MP2/GTMP2Large=-549.0628341\G3MP2=-549.3106024\FreqCoord=0.012239698
 2,0.0000896642,-0.0063365523,0.0123835505,0.0000169848,2.6097296132,2.
 2744555242,-0.0004325981,3.9329906346,4.5664000651,-0.000816193,2.6454
 108723,4.5985586017,-0.0007473234,0.038247938,2.3121775647,-0.00029885
 07,-1.237946951,-1.7109725591,0.0004308187,-1.0664306444,-1.7561959921
 ,0.0003154321,3.6109534275,2.2447711364,-0.0005054679,6.7492982791,6.2
 970170245,-0.0011614361,3.7019237796,6.3367031667,-0.0010363812,-0.997
 621413,2.3339488775,-0.0002311278,-4.0007951884,0.3435536032,0.0007423
 267,-5.0595086274,4.3401042929,0.0000742592,-5.0271484751,4.096991983,
 -0.0011696578,8.0174312533,0.3679982147,-0.0004165919,7.6122544476\PG=
 C01 [X(C7H5N1O3)]\NImag=0\\0.84034873,-0.00012302,0.16900426,0.0620237
 7,-0.00002547,0.78443500,-0.16698420,0.00001384,0.05313880,0.81906670,
 0.00001638,-0.07885411,-0.00000116,-0.00011898,0.16858560,-0.05749731,
 0.00001794,-0.36922371,-0.04605406,-0.00000751,0.77358874,0.06273124,-
 0.00000647,-0.11549316,-0.31819663,0.00004583,-0.02982539,0.79622435,-
 0.00000976,0.01015098,0.00002221,0.00004751,-0.07749562,0.00000678,-0.
 00011608,0.16911791,-0.03204812,0.00000571,-0.02517523,-0.13241475,0.0
 0002605,-0.21299627,0.00715500,-0.00002086,0.74544089,-0.03154402,0.00
 000368,0.05172909,-0.06854760,0.00001499,-0.04424181,-0.31154444,0.000
 03907,0.12268773,0.81435718,0.00000382,-0.00585982,-0.00000800,0.00001
 359,0.00922810,0.00000628,0.00004047,-0.07993304,-0.00002003,-0.000117
 70,0.17104399,0.05499760,-0.00000785,-0.09181601,0.03945559,-0.0000089
 1,0.11122486,0.02600075,-0.00000314,-0.20135721,0.05970265,-0.00002834
 ,0.79082820,-0.06972829,0.00001382,0.04418563,-0.02954102,0.00000505,-
 0.05490489,0.06153909,-0.00000962,0.03313173,-0.16981951,0.00001654,0.
 05819552,0.83189341,0.00001545,0.01013849,-0.00001031,0.00000517,-0.00
 635936,0.00001239,-0.00001189,0.00940110,-0.00000628,0.00001862,-0.078
 28435,-0.00000269,-0.00011996,0.16946307,-0.04746972,0.00000640,0.1074
 2758,-0.04847269,0.00001058,-0.09514712,0.11402949,-0.00001962,-0.0242
 6532,-0.05197414,0.00001899,-0.38345217,-0.06541030,-0.00000313,0.7909
 1705,-0.33539210,0.00004671,0.01887588,0.05912195,-0.00001162,0.123345
 09,-0.11357856,0.00001929,-0.00049665,0.06363012,-0.00000874,-0.119578
 34,-0.32366077,0.00004592,-0.01616091,0.85605768,0.00004260,-0.0755547
 7,-0.00000492,-0.00000821,0.00674992,-0.00002095,0.00001917,-0.0080096
 3,0.00000027,-0.00001177,0.00620374,0.00002334,0.00005013,-0.07525552,
 0.00000201,-0.00012434,0.16708966,0.13181263,-0.00002557,-0.18800758,0
 .02819580,-0.00000605,-0.02777267,0.00197789,-0.00000015,-0.00982905,-
 0.02809605,0.00000454,-0.02995588,-0.12899034,0.00002227,-0.18726651,-
 0.00304604,-0.00002893,0.67789053,-0.31130848,0.00005068,-0.14170505,0
 .00945192,-0.00000051,0.00311026,0.00092807,0.00000144,0.00161610,0.00
 035564,-0.00000024,0.00059894,-0.00327486,0.00000173,0.00459902,-0.020
 08596,0.00000549,-0.01852047,0.32219849,0.00005342,-0.04959583,0.00002
 727,-0.00000004,0.00625743,0.00000038,0.00000081,0.00841022,-0.0000000
 2,-0.00000004,-0.00073377,-0.00000041,0.00000189,0.00616912,-0.0000004
 9,0.00000288,0.00701775,0.00000499,-0.00005669,0.03293249,-0.14474352,
 0.00002849,-0.15767214,-0.03080007,0.00000590,-0.00938681,0.00144600,0
 .,-0.00626734,0.00087135,-0.00000019,-0.00096676,0.00394023,-0.0000004
 1,-0.00220473,0.01417688,-0.00000250,0.01692337,0.15507993,-0.00003163
 ,0.16231360,0.00643083,-0.00000018,-0.00246296,-0.30647173,0.00004458,
 0.13059371,-0.02036747,0.00000414,0.01733593,-0.00373833,0.00000209,-0
 .00451647,0.00015751,-0.00000009,-0.00089690,0.00149700,0.00000121,-0.
 00094090,0.00077807,-0.00000105,0.00045807,0.32120699,-0.00000105,0.00
 535875,0.00000125,0.00004408,-0.04691924,-0.00002166,0.00000534,0.0042
 9195,-0.00000282,0.00000195,0.00737955,0.00000100,-0.00000028,-0.00064
 842,0.,0.00000185,0.00825143,0.00000070,-0.00000113,-0.00513395,-0.000
 00032,-0.00004975,0.03183826,0.03379065,-0.00000588,-0.01137258,0.1293
 2263,-0.00002076,-0.14772940,-0.01487857,0.00000254,0.01624890,-0.0036
 1477,0.00000098,-0.00212728,-0.00070969,0.00000011,-0.00085590,-0.0018
 9488,0.00000028,-0.00591476,-0.00051642,-0.00000003,0.00132744,-0.1416
 1856,0.00002274,0.15056889,-0.00539015,0.00000298,-0.00648768,0.005887
 22,0.00000021,-0.03708267,-0.13529841,0.00000391,0.04235657,0.01668962
 ,-0.00000220,0.03167695,-0.00712005,0.00000274,0.00861347,-0.00602746,
 0.00000128,-0.00123738,0.00036914,-0.00000008,-0.00153233,-0.00041832,
 -0.00000081,-0.00248484,1.09566932,0.00000230,0.00964812,0.00000109,0.
 00000169,0.00292822,0.00000715,0.00000297,-0.09379347,-0.00000030,-0.0
 0000436,0.00466789,-0.00000304,0.00000247,0.00820548,-0.00000261,0.000
 00157,0.00000019,0.00000100,-0.00000007,-0.00012983,0.00000023,-0.0000
 0125,-0.00518266,0.00000031,-0.00021833,0.22791583,-0.00129383,0.00000
 182,0.00032579,-0.01200187,0.00000392,-0.01545005,0.02355284,-0.000007
 88,-0.23874964,0.01284080,-0.00000062,-0.02231183,0.00298554,0.0000008
 2,0.00035443,-0.00012421,0.00000022,0.00721052,0.00012524,-0.00000009,
 0.00062672,0.00345306,-0.00000145,-0.00003084,0.23613582,-0.00013174,0
 .78356920,0.00023165,-0.00000022,0.00069687,-0.00365963,0.00000189,0.0
 0441157,-0.02083820,0.00000523,-0.01738398,-0.30575230,0.00005027,-0.1
 3943485,0.00864286,-0.00000056,0.00342512,0.00100987,0.00000152,0.0014
 0298,0.00001511,-0.00000014,-0.00005094,-0.00103079,0.00000025,-0.0009
 0129,-0.00221888,-0.00000004,-0.00281622,0.31902558,-0.00000014,-0.000
 77970,-0.00000021,0.00000202,0.00709812,-0.00000064,0.00000382,0.00529
 610,0.00000327,0.00005083,-0.04981919,0.00002820,0.00000025,0.00602226
 ,0.00000006,0.00000093,0.00891306,0.00000031,-0.00000014,-0.00078540,-
 0.00000001,0.00000021,0.00025933,0.00000015,-0.00000039,-0.00428063,-0
 .00000026,-0.00005621,0.03345027,0.00084001,-0.00000017,-0.00088060,0.
 00373546,-0.00000037,-0.00217497,0.01478987,-0.00000287,0.01718417,-0.
 14029538,0.00002848,-0.15718392,-0.03141543,0.00000619,-0.01116289,0.0
 0166151,-0.00000023,-0.00562308,-0.00005743,-0.00000003,0.00001324,0.0
 0104739,-0.00000021,0.00056663,0.00047684,-0.00000026,0.00061536,0.151
 03370,-0.00003090,0.15958630,-0.00317147,0.00000164,-0.00457160,0.0004
 4836,-0.00000014,-0.00059296,0.00098074,0.00000138,-0.00149332,0.00902
 052,-0.00000050,-0.00268350,-0.31499217,0.00004522,0.13936874,-0.02020
 559,0.00000430,0.01775727,-0.00089970,0.00000026,0.00093701,0.00001090
 ,-0.00000016,0.00006205,0.00034872,-0.00000011,-0.00017231,0.00073370,
 -0.00000108,0.00046262,0.32636639,0.00000150,0.00589929,0.00000122,-0.
 00000034,-0.00060811,-0.00000022,0.00000196,0.00896070,0.00000056,-0.0
 0000092,0.00681445,0.00000151,0.00004250,-0.05009122,-0.00002402,0.000
 00686,0.00665207,-0.00000186,0.00000029,0.00059283,-0.00000025,-0.0000
 0016,-0.00082500,-0.00000005,-0.00000019,-0.00033605,-0.00000004,-0.00
 000119,-0.00551692,-0.00000028,-0.00004928,0.03311008,-0.00401539,0.00
 000103,-0.00232443,-0.00088720,0.00000014,-0.00108612,-0.00088112,0.00
 000056,-0.00631260,0.03107966,-0.00000537,-0.00908387,0.14244646,-0.00
 002398,-0.15363032,-0.01486059,0.00000278,0.01687871,-0.00097613,0.000
 00011,0.00084623,0.00005104,-0.00000003,0.00002811,0.00201534,-0.00000
 037,0.00030646,-0.00050910,-0.00000017,0.00126641,-0.15264386,0.000024
 49,0.15810290,0.01975232,-0.00000198,0.03475728,-0.00995744,0.00000451
 ,0.00639120,-0.00485872,0.00000066,-0.00008220,-0.00986462,0.00000278,
 -0.00656332,0.02105526,-0.00000632,-0.03352308,-0.14646714,0.00000863,
 0.00001683,-0.00492702,-0.00000035,0.00120652,0.00028376,-0.00000037,0
 .00230052,-0.00059512,-0.00000017,0.00020780,0.00046197,0.00000041,-0.
 00213431,-0.00500811,0.00000033,-0.00126527,1.26619370,-0.00000708,-0.
 00197862,-0.00000660,0.00000561,0.01066906,-0.00000185,0.00000018,-0.0
 0150155,0.00000196,0.00000187,0.01011375,0.00000020,-0.00000089,-0.002
 16291,0.00000621,0.00000823,-0.10052148,0.00003617,0.00000057,-0.00540
 141,-0.00000024,-0.00000002,0.00045255,-0.00000081,-0.00000016,-0.0011
 8469,-0.00000083,0.00000010,0.00028387,0.00000004,-0.00000079,-0.00501
 776,0.00000013,-0.00016110,0.29319206,0.01471135,0.00000094,-0.0314799
 3,0.00602772,0.00000178,0.00422596,-0.00231924,0.00000004,0.00779975,-
 0.00556494,0.00000363,0.00392371,-0.01355550,0.00000577,-0.03168794,-0
 .00046133,-0.00002691,-0.19287152,-0.00258023,-0.00000143,0.00069728,-
 0.00053929,-0.00000001,0.00040625,0.00008713,-0.00000022,-0.01031785,0
 .00035657,-0.00000024,0.00024685,0.00251675,-0.00000213,0.00071867,0.0
 0138160,-0.00021720,0.89245754,-0.00880359,-0.00000046,0.00495329,0.00
 273657,-0.00000158,-0.00078539,-0.00012662,0.00000015,-0.00045027,0.00
 190917,-0.00000112,-0.00125734,0.00155494,0.00000053,0.00055538,-0.007
 44433,0.00002424,-0.02748269,0.00437273,-0.00000047,0.00109364,0.00004
 815,0.00000008,-0.00043483,0.00001190,0.00000009,0.00138023,0.00003530
 ,-0.00000011,-0.00014751,0.00200009,-0.00000029,0.00193494,-0.55755598
 ,0.00020079,-0.26493379,0.73154104,0.00000350,0.00199505,-0.00000019,-
 0.00000127,-0.00086486,0.00000097,-0.00000027,0.00018296,-0.00000021,0
 .00000074,-0.00136522,0.00000023,-0.00000128,0.00325402,0.00000336,0.0
 0001790,0.02415373,0.00000112,-0.00000141,-0.00005761,0.00000083,-0.00
 000002,0.00003411,0.00000034,-0.00000004,-0.00002989,-0.00000057,-0.00
 000017,-0.00032628,0.00000033,-0.00000056,0.00047588,-0.00000075,0.000
 22100,-0.09856742,0.00016327,-0.00026433,0.03613086,-0.00082727,0.0000
 0114,-0.00640358,-0.00120890,0.00000002,0.00178999,-0.00173088,0.00000
 039,-0.00266665,-0.00109300,-0.00000093,-0.00350900,0.00805032,-0.0000
 0079,-0.00525940,-0.05754707,0.00003745,-0.03506024,-0.00078502,0.0000
 0103,-0.00597598,0.00021244,0.,-0.00026231,-0.00023302,-0.00000016,0.0
 0393611,0.00015125,-0.00000004,-0.00087451,0.00016714,0.00000020,0.000
 78030,-0.23726077,0.00013147,-0.32839311,0.29141259,-0.00015915,0.3155
 4118,0.00179579,0.00000008,-0.00043739,0.00205053,0.00000006,0.0012988
 5,-0.00090849,0.00000006,0.00053480,0.00280830,0.00000026,0.00073529,-
 0.00872075,0.00000440,-0.00484720,-0.00926608,-0.00001399,0.02782812,0
 .00202497,-0.00000042,-0.00193664,-0.00001115,0.,0.00021979,0.00016427
 ,-0.00000006,-0.00165669,-0.00000812,-0.00000010,0.00041687,0.00439116
 ,-0.00000111,-0.00096668,-0.56818504,-0.00004760,0.26297623,-0.1705126
 7,0.00002629,0.00121398,0.74366797,0.00000179,0.00318536,0.00000381,-0
 .00000198,-0.00145710,-0.00000036,0.00000061,0.00016385,-0.00000038,-0
 .00000008,-0.00081920,0.00000083,0.00000023,0.00194873,0.00000141,-0.0
 0000709,0.02428096,-0.00000837,0.00000007,0.00052363,-0.00000012,-0.00
 000002,-0.00033837,0.00000035,-0.00000004,0.00000998,-0.00000006,-0.00
 000002,0.00006513,0.00000016,-0.00000018,-0.00007502,0.00000126,-0.000
 06818,-0.09847842,0.00007341,0.00004249,0.03491319,-0.00001101,0.00003
 231,0.03602275,-0.00781622,0.00000211,-0.00544232,0.00095456,-0.000001
 49,-0.00344782,0.00306906,-0.00000048,-0.00267381,0.00097004,-0.000000
 39,0.00180731,0.00069822,0.00000107,-0.00640274,0.05844195,0.00001779,
 -0.03342969,-0.00016337,0.00000036,0.00075729,0.00002529,-0.00000005,-
 0.00105461,0.00043621,-0.00000026,0.00395404,-0.00009184,0.00000008,-0
 .00015776,0.00094489,0.00000078,-0.00592829,0.23494781,0.00005122,-0.3
 2154427,-0.00504747,-0.00001008,0.06895439,-0.28630694,-0.00006114,0.3
 0702686,0.00066528,-0.00000098,0.00048108,0.00398566,-0.00000052,0.001
 51315,0.00427540,0.00001006,-0.03781104,-0.00858148,0.00000049,0.00211
 656,0.00207621,-0.00000088,-0.00133028,0.00053472,-0.00000024,-0.00119
 477,0.00000860,0.,-0.00024611,0.00085598,0.00000010,0.00124900,-0.7065
 2380,0.00020735,-0.37729764,0.00317085,-0.00000035,-0.00008062,-0.0000
 4808,0.00000008,-0.00057582,-0.00029042,0.00000030,0.00272959,0.000028
 17,0.,-0.00089738,0.00076742,0.00000008,-0.00132945,0.75371065,0.00000
 015,-0.00209267,-0.00000004,-0.00000186,0.00237535,0.00000119,0.000010
 73,0.02282324,0.00001320,0.00000249,-0.00053205,-0.00000123,-0.0000005
 0,-0.00070595,0.00000066,-0.00000028,-0.00010072,0.00000006,-0.0000000
 8,-0.00017510,0.00000019,0.00000009,0.00088187,-0.00000040,0.00021319,
 -0.07519214,0.00013940,-0.00000079,-0.00020708,0.00000005,0.00000003,0
 .00014519,0.00000017,0.00000017,0.00017405,-0.00000078,-0.00000002,0.0
 0003908,0.00000038,-0.00000023,0.00002010,0.00000046,-0.00023955,0.028
 04162,-0.00191189,-0.00000056,-0.00233188,0.00886532,-0.00000145,-0.00
 744808,-0.05855727,0.00002231,-0.04513294,-0.00251989,0.00000018,0.001
 08932,-0.00102064,-0.00000028,0.00250427,-0.00206595,0.00000021,-0.002
 99768,0.00017360,-0.00000003,-0.00092852,-0.00072873,0.00000045,0.0006
 0916,-0.38101471,0.00013724,-0.37605016,-0.00033663,0.00000032,-0.0016
 3416,0.00005280,0.00000007,-0.00006384,-0.00049655,0.00000021,0.005108
 80,-0.00053237,0.00000035,-0.00222992,0.00098835,0.00000018,-0.0021536
 1,0.44522896,-0.00016096,0.40830112,0.00036646,-0.00000011,0.00031615,
 0.00060932,-0.00000016,0.00032067,-0.00096133,0.00000257,-0.00263753,0
 .00062176,0.00000019,0.00055396,-0.00006186,-0.00000008,-0.00050599,0.
 00027665,-0.00000004,0.00051711,-0.00000673,0.00000003,0.00009999,0.00
 076861,-0.00000012,0.00010922,-0.25554799,0.00000596,0.11468145,0.0001
 8103,0.00000004,-0.00033361,0.00002455,-0.00000005,0.00005370,-0.00003
 742,-0.00000002,-0.00083263,0.00020515,-0.00000010,0.00037559,-0.00005
 811,0.,0.00026725,-0.05463516,0.00001645,-0.00612438,0.30825509,0.0000
 0013,-0.00066478,0.00000004,-0.00000084,-0.00133339,0.00000011,0.00000
 279,0.02193430,-0.00000013,0.00000063,0.00189517,0.00000030,-0.0000003
 4,-0.00109454,0.00000021,-0.00000009,0.00012961,-0.00000025,0.00000001
 ,0.00010944,0.00000003,0.00000023,0.00029984,0.00000013,-0.00000208,-0
 .07324635,-0.00000263,0.00000006,0.00032706,0.00000005,-0.00000002,-0.
 00018043,0.00000002,-0.00000003,-0.00007109,0.00000009,0.00000001,0.00
 003242,0.00000002,0.00000004,0.00003443,0.00000002,0.00002406,0.024505
 21,0.00000177,-0.00002458,0.02732309,-0.00055274,-0.00000010,-0.000058
 39,0.00214366,-0.00000066,0.00103346,0.03166474,0.00000015,-0.01124765
 ,-0.00248135,0.00000076,-0.00710949,0.00237315,-0.00000074,0.00013173,
 -0.00026535,0.00000010,-0.00017446,0.00000103,0.00000002,-0.00010287,-
 0.00147312,0.00000042,-0.00040771,0.10827430,-0.00000807,-0.13798828,0
 .00004678,0.00000008,0.00021292,-0.00011172,0.00000001,-0.00049834,0.0
 0011594,-0.00000007,0.00070981,-0.00025840,0.00000015,-0.00036727,-0.0
 0006074,0.00000003,-0.00026498,-0.03255525,0.00000766,0.02335811,-0.10
 686095,0.00000025,0.13277342\\-0.00000177,0.00000435,0.00004143,-0.000
 00451,-0.00000212,-0.00005347,0.00002801,-0.00001140,0.00001814,-0.000
 01646,-0.00000187,-0.00001538,-0.00002369,0.00000405,-0.00000817,0.000
 02718,0.00002948,0.00002425,0.00000197,0.00000025,-0.00000651,0.000005
 34,-0.00000043,-0.00000205,-0.00001520,0.00003870,-0.00003809,-0.00000
 569,-0.00000016,-0.00000316,0.00000026,0.00000020,-0.00000463,-0.00000
 268,-0.00012106,0.00013927,0.00000052,0.00004355,-0.00004788,0.0000000
 7,0.00004355,-0.00004659,-0.00000601,-0.00001379,-0.00000198,0.0000126
 6,-0.00001329,0.00000481\\\@
 Job cpu time:  0 days  0 hours 35 minutes  0.9 seconds.
 File lengths (MBytes):  RWF=  12534 Int=      0 D2E=      0 Chk=     11 Scr=      1
 Normal termination of Gaussian 09 at Wed Mar 11 00:48:27 2020.
